-0.0206 	0.0129396 	0 	0.65014 	0.016125 	-8.34645e-06 	0
-0.0206 	0.0132591 	0 	0.650004 	0.0373631 	-4.41421e-05 	0
-0.0206 	0.0135786 	0 	0.649872 	0.0584162 	-0.000107772 	0
-0.0206 	0.0138981 	0 	0.649743 	0.0792769 	-0.00019969 	0
-0.0206 	0.0142176 	0 	0.649619 	0.0999514 	-0.000317257 	0
-0.0206 	0.0145371 	0 	0.649498 	0.120441 	-0.000460073 	0
-0.0206 	0.0148566 	0 	0.649382 	0.140755 	-0.000625957 	0
-0.0206 	0.0151761 	0 	0.64927 	0.160883 	-0.000813688 	0
-0.0206 	0.0154956 	0 	0.649163 	0.180773 	-0.00103199 	0
-0.0206 	0.0158151 	0 	0.649059 	0.200582 	-0.00126021 	0
-0.0206 	0.0161346 	0 	0.648964 	0.220052 	-0.0015232 	0
-0.0206 	0.0164541 	0 	0.64887 	0.239522 	-0.00178619 	0
-0.0206 	0.0167736 	0 	0.648787 	0.25858 	-0.00209385 	0
-0.0206 	0.0170931 	0 	0.648705 	0.277615 	-0.0024003 	0
-0.0206 	0.0174126 	0 	0.648629 	0.296444 	-0.00272921 	0
-0.0206 	0.0177321 	0 	0.648565 	0.314958 	-0.00308137 	0
-0.0206 	0.0180516 	0 	0.6485 	0.333471 	-0.00343353 	0
-0.0206 	0.0183711 	0 	0.648443 	0.351792 	-0.00380504 	0
-0.0206 	0.0186906 	0 	0.648402 	0.369681 	-0.00420257 	0
-0.0206 	0.0190101 	0 	0.648361 	0.38757 	-0.00460009 	0
-0.0206 	0.0193296 	0 	0.648319 	0.405459 	-0.00499762 	0
-0.0206 	0.0196491 	0 	0.648297 	0.422923 	-0.00542502 	0
-0.0206 	0.0199686 	0 	0.648287 	0.440072 	-0.00586354 	0
-0.0206 	0.020288 	0 	0.648277 	0.45722 	-0.00630207 	0
-0.0206 	0.0206075 	0 	0.648267 	0.474369 	-0.00674061 	0
-0.0206 	0.020927 	0 	0.648261 	0.491466 	-0.00718384 	0
-0.0206 	0.0212465 	0 	0.648293 	0.507746 	-0.00765767 	0
-0.0206 	0.021566 	0 	0.648325 	0.524023 	-0.00812732 	0
-0.0206 	0.0218855 	0 	0.648356 	0.5403 	-0.00859695 	0
-0.0206 	0.022205 	0 	0.648388 	0.556578 	-0.00906659 	0
-0.0206 	0.0225245 	0 	0.648419 	0.572855 	-0.00953624 	0
-0.0206 	0.022844 	0 	0.648485 	0.588536 	-0.0100222 	0
-0.0206 	0.0231635 	0 	0.64857 	0.603799 	-0.0105065 	0
-0.0206 	0.023483 	0 	0.648654 	0.619062 	-0.0109909 	0
-0.0206 	0.0238025 	0 	0.648738 	0.634326 	-0.0114753 	0
-0.0206 	0.024122 	0 	0.648822 	0.649589 	-0.0119597 	0
-0.0206 	0.0244415 	0 	0.648907 	0.664853 	-0.012444 	0
-0.0206 	0.024761 	0 	0.648991 	0.680116 	-0.0129284 	0
-0.0206 	0.0250805 	0 	0.649143 	0.694242 	-0.0134125 	0
-0.0206 	0.0254 	0 	0.649291 	0.708338 	-0.0138891 	0
-0.0199776 	0.0129396 	0 	0.648409 	0.0161746 	-8.76216e-06 	0
-0.0199776 	0.0132591 	0 	0.648268 	0.0374671 	-4.60103e-05 	0
-0.0199776 	0.0135786 	0 	0.648131 	0.0585766 	-0.000112309 	0
-0.0199776 	0.0138981 	0 	0.647994 	0.0795139 	-0.000209931 	0
-0.0199776 	0.0142176 	0 	0.647865 	0.100242 	-0.000332921 	0
-0.0199776 	0.0145371 	0 	0.647739 	0.12079 	-0.000483321 	0
-0.0199776 	0.0148566 	0 	0.647619 	0.141138 	-0.000654741 	0
-0.0199776 	0.0151761 	0 	0.647504 	0.161299 	-0.000847903 	0
-0.0199776 	0.0154956 	0 	0.64739 	0.181265 	-0.0010819 	0
-0.0199776 	0.0158151 	0 	0.647285 	0.201077 	-0.00131078 	0
-0.0199776 	0.0161346 	0 	0.647183 	0.220629 	-0.00159528 	0
-0.0199776 	0.0164541 	0 	0.647088 	0.240099 	-0.00185827 	0
-0.0199776 	0.0167736 	0 	0.646998 	0.259247 	-0.00219668 	0
-0.0199776 	0.0170931 	0 	0.646916 	0.278282 	-0.00250314 	0
-0.0199776 	0.0174126 	0 	0.646839 	0.297143 	-0.00284622 	0
-0.0199776 	0.0177321 	0 	0.64677 	0.315717 	-0.00322585 	0
-0.0199776 	0.0180516 	0 	0.646706 	0.334229 	-0.00357801 	0
-0.0199776 	0.0183711 	0 	0.646648 	0.352567 	-0.0039598 	0
-0.0199776 	0.0186906 	0 	0.646605 	0.370526 	-0.00440157 	0
-0.0199776 	0.0190101 	0 	0.646564 	0.388415 	-0.00479909 	0
-0.0199776 	0.0193296 	0 	0.646523 	0.406304 	-0.00519662 	0
-0.0199776 	0.0196491 	0 	0.646502 	0.423792 	-0.0056463 	0
-0.0199776 	0.0199686 	0 	0.646497 	0.440988 	-0.00613071 	0
-0.0199776 	0.020288 	0 	0.646487 	0.458137 	-0.00656924 	0
-0.0199776 	0.0206075 	0 	0.646477 	0.475286 	-0.00700777 	0
-0.0199776 	0.020927 	0 	0.64647 	0.492383 	-0.007451 	0
-0.0199776 	0.0212465 	0 	0.646514 	0.508686 	-0.00796775 	0
-0.0199776 	0.021566 	0 	0.646555 	0.524984 	-0.00847455 	0
-0.0199776 	0.0218855 	0 	0.646586 	0.541261 	-0.00894419 	0
-0.0199776 	0.022205 	0 	0.646618 	0.557539 	-0.00941383 	0
-0.0199776 	0.0225245 	0 	0.646649 	0.573817 	-0.00988348 	0
-0.0199776 	0.022844 	0 	0.646724 	0.589498 	-0.0103866 	0
-0.0199776 	0.0231635 	0 	0.646829 	0.604763 	-0.010913 	0
-0.0199776 	0.023483 	0 	0.646926 	0.620028 	-0.0114246 	0
-0.0199776 	0.0238025 	0 	0.64701 	0.635291 	-0.011909 	0
-0.0199776 	0.024122 	0 	0.647095 	0.650555 	-0.0123934 	0
-0.0199776 	0.0244415 	0 	0.647179 	0.665818 	-0.0128778 	0
-0.0199776 	0.024761 	0 	0.647263 	0.681082 	-0.0133622 	0
-0.0199776 	0.0250805 	0 	0.647437 	0.695193 	-0.0138715 	0
-0.0199776 	0.0254 	0 	0.647614 	0.709271 	-0.0143816 	0
-0.0193551 	0.0129396 	0 	0.646679 	0.0162206 	-9.12608e-06 	0
-0.0193551 	0.0132591 	0 	0.646532 	0.0375711 	-4.78785e-05 	0
-0.0193551 	0.0135786 	0 	0.646389 	0.058737 	-0.000116846 	0
-0.0193551 	0.0138981 	0 	0.64625 	0.0797107 	-0.000216858 	0
-0.0193551 	0.0142176 	0 	0.646114 	0.1005 	-0.000345273 	0
-0.0193551 	0.0145371 	0 	0.645984 	0.121089 	-0.000500116 	0
-0.0193551 	0.0148566 	0 	0.645859 	0.141487 	-0.000677989 	0
-0.0193551 	0.0151761 	0 	0.645737 	0.161716 	-0.000882118 	0
-0.0193551 	0.0154956 	0 	0.64562 	0.181714 	-0.00112285 	0
-0.0193551 	0.0158151 	0 	0.645512 	0.20157 	-0.00136069 	0
-0.0193551 	0.0161346 	0 	0.645405 	0.221168 	-0.00165747 	0
-0.0193551 	0.0164541 	0 	0.645307 	0.240676 	-0.00193035 	0
-0.0193551 	0.0167736 	0 	0.645215 	0.259835 	-0.00227272 	0
-0.0193551 	0.0170931 	0 	0.645127 	0.278949 	-0.00260598 	0
-0.0193551 	0.0174126 	0 	0.64505 	0.297809 	-0.00294906 	0
-0.0193551 	0.0177321 	0 	0.644979 	0.316418 	-0.00334459 	0
-0.0193551 	0.0180516 	0 	0.644911 	0.334988 	-0.00372249 	0
-0.0193551 	0.0183711 	0 	0.644853 	0.353325 	-0.00410428 	0
-0.0193551 	0.0186906 	0 	0.64481 	0.371289 	-0.00454874 	0
-0.0193551 	0.0190101 	0 	0.644768 	0.389253 	-0.00499319 	0
-0.0193551 	0.0193296 	0 	0.644726 	0.40715 	-0.00539562 	0
-0.0193551 	0.0196491 	0 	0.644706 	0.424637 	-0.0058453 	0
-0.0193551 	0.0199686 	0 	0.644701 	0.441836 	-0.00633233 	0
-0.0193551 	0.020288 	0 	0.644695 	0.459036 	-0.00681936 	0
-0.0193551 	0.0206075 	0 	0.644687 	0.476203 	-0.00727494 	0
-0.0193551 	0.020927 	0 	0.64468 	0.4933 	-0.00771817 	0
-0.0193551 	0.0212465 	0 	0.644724 	0.509603 	-0.00823492 	0
-0.0193551 	0.021566 	0 	0.644767 	0.525907 	-0.00875166 	0
-0.0193551 	0.0218855 	0 	0.644811 	0.54221 	-0.00926839 	0
-0.0193551 	0.022205 	0 	0.644848 	0.5585 	-0.00976108 	0
-0.0193551 	0.0225245 	0 	0.64488 	0.574778 	-0.0102307 	0
-0.0193551 	0.022844 	0 	0.644954 	0.590459 	-0.0107338 	0
-0.0193551 	0.0231635 	0 	0.645059 	0.605724 	-0.0112603 	0
-0.0193551 	0.023483 	0 	0.645164 	0.62099 	-0.0117867 	0
-0.0193551 	0.0238025 	0 	0.645268 	0.636255 	-0.0123131 	0
-0.0193551 	0.024122 	0 	0.645367 	0.65152 	-0.0128271 	0
-0.0193551 	0.0244415 	0 	0.645451 	0.666784 	-0.0133115 	0
-0.0193551 	0.024761 	0 	0.645536 	0.682047 	-0.0137959 	0
-0.0193551 	0.0250805 	0 	0.645709 	0.696159 	-0.0143052 	0
-0.0193551 	0.0254 	0 	0.645886 	0.710237 	-0.0148154 	0
-0.0187327 	0.0129396 	0 	0.64495 	0.0162576 	-9.35801e-06 	0
-0.0187327 	0.0132591 	0 	0.644797 	0.0376688 	-4.9544e-05 	0
-0.0187327 	0.0135786 	0 	0.644649 	0.0588895 	-0.000120974 	0
-0.0187327 	0.0138981 	0 	0.644505 	0.0799075 	-0.000223786 	0
-0.0187327 	0.0142176 	0 	0.644365 	0.10074 	-0.000355738 	0
-0.0187327 	0.0145371 	0 	0.64423 	0.121379 	-0.000515781 	0
-0.0187327 	0.0148566 	0 	0.644099 	0.141836 	-0.000701236 	0
-0.0187327 	0.0151761 	0 	0.643973 	0.162114 	-0.000913425 	0
-0.0187327 	0.0154956 	0 	0.643854 	0.182131 	-0.00115706 	0
-0.0187327 	0.0158151 	0 	0.643738 	0.202062 	-0.00141061 	0
-0.0187327 	0.0161346 	0 	0.643632 	0.221661 	-0.00170738 	0
-0.0187327 	0.0164541 	0 	0.643526 	0.241253 	-0.00200243 	0
-0.0187327 	0.0167736 	0 	0.643434 	0.260412 	-0.0023448 	0
-0.0187327 	0.0170931 	0 	0.643343 	0.279561 	-0.00269 	0
-0.0187327 	0.0174126 	0 	0.643261 	0.298476 	-0.00305189 	0
-0.0187327 	0.0177321 	0 	0.64319 	0.317085 	-0.00344742 	0
-0.0187327 	0.0180516 	0 	0.643119 	0.335694 	-0.00384294 	0
-0.0187327 	0.0183711 	0 	0.643058 	0.354084 	-0.00424875 	0
-0.0187327 	0.0186906 	0 	0.643016 	0.372048 	-0.00469322 	0
-0.0187327 	0.0190101 	0 	0.642973 	0.390011 	-0.00513766 	0
-0.0187327 	0.0193296 	0 	0.64293 	0.407975 	-0.00558213 	0
-0.0187327 	0.0196491 	0 	0.642909 	0.425482 	-0.0060443 	0
-0.0187327 	0.0199686 	0 	0.642904 	0.442682 	-0.00653132 	0
-0.0187327 	0.020288 	0 	0.642899 	0.459881 	-0.00701836 	0
-0.0187327 	0.0206075 	0 	0.642893 	0.477081 	-0.00750539 	0
-0.0187327 	0.020927 	0 	0.64289 	0.494217 	-0.00798534 	0
-0.0187327 	0.0212465 	0 	0.642934 	0.51052 	-0.00850208 	0
-0.0187327 	0.021566 	0 	0.642977 	0.526824 	-0.00901883 	0
-0.0187327 	0.0218855 	0 	0.643021 	0.543127 	-0.00953555 	0
-0.0187327 	0.022205 	0 	0.643064 	0.55943 	-0.0100523 	0
-0.0187327 	0.0225245 	0 	0.643108 	0.575734 	-0.010569 	0
-0.0187327 	0.022844 	0 	0.643185 	0.59142 	-0.0110811 	0
-0.0187327 	0.0231635 	0 	0.64329 	0.606685 	-0.0116075 	0
-0.0187327 	0.023483 	0 	0.643394 	0.621951 	-0.0121339 	0
-0.0187327 	0.0238025 	0 	0.643499 	0.637217 	-0.0126604 	0
-0.0187327 	0.024122 	0 	0.643604 	0.652482 	-0.0131868 	0
-0.0187327 	0.0244415 	0 	0.643708 	0.667748 	-0.0137132 	0
-0.0187327 	0.024761 	0 	0.643808 	0.683013 	-0.0142296 	0
-0.0187327 	0.0250805 	0 	0.643982 	0.697124 	-0.014739 	0
-0.0187327 	0.0254 	0 	0.644158 	0.711202 	-0.0152491 	0
-0.0181102 	0.0129396 	0 	0.643179 	0.0163112 	-9.83824e-06 	0
-0.0181102 	0.0132591 	0 	0.64302 	0.037782 	-5.17217e-05 	0
-0.0181102 	0.0135786 	0 	0.642865 	0.0590645 	-0.000126284 	0
-0.0181102 	0.0138981 	0 	0.642712 	0.0801695 	-0.000236079 	0
-0.0181102 	0.0142176 	0 	0.642566 	0.101057 	-0.000374168 	0
-0.0181102 	0.0145371 	0 	0.642424 	0.121761 	-0.000543175 	0
-0.0181102 	0.0148566 	0 	0.642288 	0.142268 	-0.000737384 	0
-0.0181102 	0.0151761 	0 	0.642159 	0.16257 	-0.000953797 	0
-0.0181102 	0.0154956 	0 	0.642031 	0.18267 	-0.00121601 	0
-0.0181102 	0.0158151 	0 	0.641913 	0.202622 	-0.00147471 	0
-0.0181102 	0.0161346 	0 	0.641799 	0.222292 	-0.00179254 	0
-0.0181102 	0.0164541 	0 	0.641693 	0.24189 	-0.00208931 	0
-0.0181102 	0.0167736 	0 	0.641593 	0.261141 	-0.0024662 	0
-0.0181102 	0.0170931 	0 	0.641501 	0.28029 	-0.0028114 	0
-0.0181102 	0.0174126 	0 	0.641416 	0.299258 	-0.00319824 	0
-0.0181102 	0.0177321 	0 	0.641342 	0.317913 	-0.00361757 	0
-0.0181102 	0.0180516 	0 	0.641271 	0.336522 	-0.00401309 	0
-0.0181102 	0.0183711 	0 	0.641209 	0.354948 	-0.00444175 	0
-0.0181102 	0.0186906 	0 	0.641166 	0.372967 	-0.0049265 	0
-0.0181102 	0.0190101 	0 	0.641123 	0.39093 	-0.00537095 	0
-0.0181102 	0.0193296 	0 	0.64108 	0.408894 	-0.00581541 	0
-0.0181102 	0.0196491 	0 	0.641063 	0.426441 	-0.00631665 	0
-0.0181102 	0.0199686 	0 	0.641063 	0.443674 	-0.00684223 	0
-0.0181102 	0.020288 	0 	0.641057 	0.460874 	-0.00732927 	0
-0.0181102 	0.0206075 	0 	0.641052 	0.478073 	-0.0078163 	0
-0.0181102 	0.020927 	0 	0.641051 	0.495219 	-0.00830822 	0
-0.0181102 	0.0212465 	0 	0.64111 	0.511544 	-0.00887651 	0
-0.0181102 	0.021566 	0 	0.641162 	0.527857 	-0.00941875 	0
-0.0181102 	0.0218855 	0 	0.641205 	0.54416 	-0.00993548 	0
-0.0181102 	0.022205 	0 	0.641249 	0.560464 	-0.0104522 	0
-0.0181102 	0.0225245 	0 	0.641292 	0.576767 	-0.010969 	0
-0.0181102 	0.022844 	0 	0.641387 	0.592456 	-0.0115173 	0
-0.0181102 	0.0231635 	0 	0.641517 	0.607717 	-0.0120877 	0
-0.0181102 	0.023483 	0 	0.64163 	0.622981 	-0.0126269 	0
-0.0181102 	0.0238025 	0 	0.641734 	0.638247 	-0.0131534 	0
-0.0181102 	0.024122 	0 	0.641839 	0.653512 	-0.0136798 	0
-0.0181102 	0.0244415 	0 	0.641944 	0.668778 	-0.0142062 	0
-0.0181102 	0.024761 	0 	0.642048 	0.684044 	-0.0147326 	0
-0.0181102 	0.0250805 	0 	0.642256 	0.698131 	-0.0152751 	0
-0.0181102 	0.0254 	0 	0.642466 	0.712183 	-0.015818 	0
-0.0174878 	0.0129396 	0 	0.641403 	0.0163651 	-1.03207e-05 	0
-0.0174878 	0.0132591 	0 	0.641237 	0.0378998 	-5.40507e-05 	0
-0.0174878 	0.0135786 	0 	0.641075 	0.0592462 	-0.00013195 	0
-0.0174878 	0.0138981 	0 	0.640917 	0.0803976 	-0.0002452 	0
-0.0174878 	0.0142176 	0 	0.640763 	0.101358 	-0.000390588 	0
-0.0174878 	0.0145371 	0 	0.640615 	0.12211 	-0.000565715 	0
-0.0174878 	0.0148566 	0 	0.640474 	0.142663 	-0.000766533 	0
-0.0174878 	0.0151761 	0 	0.640337 	0.163042 	-0.000996729 	0
-0.0174878 	0.0154956 	0 	0.640204 	0.183191 	-0.00127023 	0
-0.0174878 	0.0158151 	0 	0.640082 	0.20318 	-0.00153735 	0
-0.0174878 	0.0161346 	0 	0.639961 	0.222915 	-0.00187439 	0
-0.0174878 	0.0164541 	0 	0.639852 	0.242542 	-0.00217974 	0
-0.0174878 	0.0167736 	0 	0.639749 	0.261822 	-0.00256762 	0
-0.0174878 	0.0170931 	0 	0.639651 	0.281042 	-0.00294017 	0
-0.0174878 	0.0174126 	0 	0.639565 	0.30001 	-0.00332701 	0
-0.0174878 	0.0177321 	0 	0.639488 	0.318718 	-0.00377348 	0
-0.0174878 	0.0180516 	0 	0.639414 	0.337373 	-0.0041933 	0
-0.0174878 	0.0183711 	0 	0.639352 	0.355799 	-0.00462196 	0
-0.0174878 	0.0186906 	0 	0.639308 	0.373838 	-0.00512074 	0
-0.0174878 	0.0190101 	0 	0.639264 	0.391874 	-0.0056175 	0
-0.0174878 	0.0193296 	0 	0.639222 	0.409838 	-0.00606197 	0
-0.0174878 	0.0196491 	0 	0.639205 	0.427384 	-0.0065632 	0
-0.0174878 	0.0199686 	0 	0.639206 	0.444631 	-0.00710509 	0
-0.0174878 	0.020288 	0 	0.639208 	0.461879 	-0.00764699 	0
-0.0174878 	0.0206075 	0 	0.639204 	0.479087 	-0.00814394 	0
-0.0174878 	0.020927 	0 	0.639202 	0.496234 	-0.00863586 	0
-0.0174878 	0.0212465 	0 	0.639262 	0.512558 	-0.00920414 	0
-0.0174878 	0.021566 	0 	0.639322 	0.528882 	-0.00977243 	0
-0.0174878 	0.0218855 	0 	0.639381 	0.545206 	-0.0103407 	0
-0.0174878 	0.022205 	0 	0.63943 	0.561515 	-0.010872 	0
-0.0174878 	0.0225245 	0 	0.639473 	0.577819 	-0.0113887 	0
-0.0174878 	0.022844 	0 	0.639568 	0.593508 	-0.0119371 	0
-0.0174878 	0.0231635 	0 	0.639698 	0.608768 	-0.0125074 	0
-0.0174878 	0.023483 	0 	0.639828 	0.624029 	-0.0130778 	0
-0.0174878 	0.0238025 	0 	0.639959 	0.63929 	-0.0136482 	0
-0.0174878 	0.024122 	0 	0.640075 	0.654553 	-0.0141946 	0
-0.0174878 	0.0244415 	0 	0.64018 	0.669819 	-0.014721 	0
-0.0174878 	0.024761 	0 	0.640284 	0.685084 	-0.0152474 	0
-0.0174878 	0.0250805 	0 	0.640492 	0.699171 	-0.0157898 	0
-0.0174878 	0.0254 	0 	0.640702 	0.713224 	-0.0163327 	0
-0.0168653 	0.0129396 	0 	0.639627 	0.0164071 	-1.06093e-05 	0
-0.0168653 	0.0132591 	0 	0.639454 	0.0380125 	-5.61977e-05 	0
-0.0168653 	0.0135786 	0 	0.639286 	0.0594218 	-0.000137262 	0
-0.0168653 	0.0138981 	0 	0.639122 	0.0806206 	-0.000253859 	0
-0.0168653 	0.0142176 	0 	0.638963 	0.10163 	-0.000403683 	0
-0.0168653 	0.0145371 	0 	0.638809 	0.122439 	-0.000585336 	0
-0.0168653 	0.0148566 	0 	0.638661 	0.143059 	-0.000795681 	0
-0.0168653 	0.0151761 	0 	0.638516 	0.163499 	-0.0010371 	0
-0.0168653 	0.0154956 	0 	0.638382 	0.183663 	-0.00131317 	0
-0.0168653 	0.0158151 	0 	0.638251 	0.203737 	-0.0016 	0
-0.0168653 	0.0161346 	0 	0.63813 	0.223472 	-0.00193704 	0
-0.0168653 	0.0164541 	0 	0.638011 	0.243194 	-0.00227017 	0
-0.0168653 	0.0167736 	0 	0.637908 	0.262474 	-0.00265805 	0
-0.0168653 	0.0170931 	0 	0.637805 	0.281743 	-0.00304919 	0
-0.0168653 	0.0174126 	0 	0.637715 	0.300762 	-0.00345578 	0
-0.0168653 	0.0177321 	0 	0.637637 	0.31947 	-0.00390225 	0
-0.0168653 	0.0180516 	0 	0.63756 	0.338177 	-0.00434871 	0
-0.0168653 	0.0183711 	0 	0.637494 	0.356651 	-0.00480218 	0
-0.0168653 	0.0186906 	0 	0.637451 	0.37469 	-0.00530095 	0
-0.0168653 	0.0190101 	0 	0.637407 	0.392728 	-0.00579971 	0
-0.0168653 	0.0193296 	0 	0.637363 	0.410767 	-0.00629849 	0
-0.0168653 	0.0196491 	0 	0.637346 	0.428328 	-0.00680976 	0
-0.0168653 	0.0199686 	0 	0.637348 	0.445575 	-0.00735165 	0
-0.0168653 	0.020288 	0 	0.63735 	0.462822 	-0.00789356 	0
-0.0168653 	0.0206075 	0 	0.637351 	0.48007 	-0.00843546 	0
-0.0168653 	0.020927 	0 	0.637354 	0.497248 	-0.0089635 	0
-0.0168653 	0.0212465 	0 	0.637414 	0.513572 	-0.00953178 	0
-0.0168653 	0.021566 	0 	0.637474 	0.529896 	-0.0101001 	0
-0.0168653 	0.0218855 	0 	0.637533 	0.54622 	-0.0106683 	0
-0.0168653 	0.022205 	0 	0.637593 	0.562544 	-0.0112366 	0
-0.0168653 	0.0225245 	0 	0.637653 	0.578868 	-0.0118049 	0
-0.0168653 	0.022844 	0 	0.637749 	0.594559 	-0.0123569 	0
-0.0168653 	0.0231635 	0 	0.637879 	0.609819 	-0.0129272 	0
-0.0168653 	0.023483 	0 	0.638009 	0.62508 	-0.0134976 	0
-0.0168653 	0.0238025 	0 	0.638139 	0.640341 	-0.014068 	0
-0.0168653 	0.024122 	0 	0.63827 	0.655601 	-0.0146383 	0
-0.0168653 	0.0244415 	0 	0.6384 	0.670862 	-0.0152087 	0
-0.0168653 	0.024761 	0 	0.63852 	0.686125 	-0.0157622 	0
-0.0168653 	0.0250805 	0 	0.638728 	0.700212 	-0.0163046 	0
-0.0168653 	0.0254 	0 	0.638938 	0.714265 	-0.0168475 	0
-0.0162429 	0.0129396 	0 	0.637813 	0.0164668 	-1.11957e-05 	0
-0.0162429 	0.0132591 	0 	0.637632 	0.038139 	-5.88727e-05 	0
-0.0162429 	0.0135786 	0 	0.637455 	0.0596176 	-0.000143808 	0
-0.0162429 	0.0138981 	0 	0.63728 	0.0809143 	-0.000269062 	0
-0.0162429 	0.0142176 	0 	0.637113 	0.101985 	-0.000426513 	0
-0.0162429 	0.0145371 	0 	0.63695 	0.122867 	-0.000619322 	0
-0.0162429 	0.0148566 	0 	0.636794 	0.143546 	-0.000840976 	0
-0.0162429 	0.0151761 	0 	0.636647 	0.16401 	-0.00108725 	0
-0.0162429 	0.0154956 	0 	0.636501 	0.184267 	-0.00138642 	0
-0.0162429 	0.0158151 	0 	0.636366 	0.204369 	-0.00168079 	0
-0.0162429 	0.0161346 	0 	0.636237 	0.224179 	-0.00204279 	0
-0.0162429 	0.0164541 	0 	0.636116 	0.243914 	-0.00237983 	0
-0.0162429 	0.0167736 	0 	0.636003 	0.263288 	-0.00280847 	0
-0.0162429 	0.0170931 	0 	0.635901 	0.282557 	-0.00319961 	0
-0.0162429 	0.0174126 	0 	0.635805 	0.301637 	-0.00363843 	0
-0.0162429 	0.0177321 	0 	0.635724 	0.320391 	-0.00411208 	0
-0.0162429 	0.0180516 	0 	0.635647 	0.339098 	-0.00455854 	0
-0.0162429 	0.0183711 	0 	0.63558 	0.357615 	-0.00504212 	0
-0.0162429 	0.0186906 	0 	0.635537 	0.375707 	-0.00558639 	0
-0.0162429 	0.0190101 	0 	0.635493 	0.393745 	-0.00608515 	0
-0.0162429 	0.0193296 	0 	0.63545 	0.411784 	-0.00658393 	0
-0.0162429 	0.0196491 	0 	0.635439 	0.429387 	-0.00714396 	0
-0.0162429 	0.0199686 	0 	0.635447 	0.446664 	-0.00772771 	0
-0.0162429 	0.020288 	0 	0.635449 	0.463911 	-0.00826962 	0
-0.0162429 	0.0206075 	0 	0.63545 	0.481159 	-0.00881152 	0
-0.0162429 	0.020927 	0 	0.635457 	0.498351 	-0.00935836 	0
-0.0162429 	0.0212465 	0 	0.635538 	0.514688 	-0.00998242 	0
-0.0162429 	0.021566 	0 	0.635607 	0.531018 	-0.0105764 	0
-0.0162429 	0.0218855 	0 	0.635667 	0.547342 	-0.0111447 	0
-0.0162429 	0.022205 	0 	0.635727 	0.563666 	-0.011713 	0
-0.0162429 	0.0225245 	0 	0.635786 	0.57999 	-0.0122813 	0
-0.0162429 	0.022844 	0 	0.635907 	0.59568 	-0.0128772 	0
-0.0162429 	0.0231635 	0 	0.636069 	0.610926 	-0.0134923 	0
-0.0162429 	0.023483 	0 	0.636208 	0.626184 	-0.0140739 	0
-0.0162429 	0.0238025 	0 	0.636338 	0.641445 	-0.0146443 	0
-0.0162429 	0.024122 	0 	0.636468 	0.656705 	-0.0152146 	0
-0.0162429 	0.0244415 	0 	0.636598 	0.671966 	-0.015785 	0
-0.0162429 	0.024761 	0 	0.636729 	0.687227 	-0.0163554 	0
-0.0162429 	0.0250805 	0 	0.636976 	0.701282 	-0.0169288 	0
-0.0162429 	0.0254 	0 	0.637226 	0.715301 	-0.0175023 	0
-0.0156204 	0.0129396 	0 	0.635989 	0.0165279 	-1.1801e-05 	0
-0.0156204 	0.0132591 	0 	0.635799 	0.0382733 	-6.18354e-05 	0
-0.0156204 	0.0135786 	0 	0.635613 	0.0598249 	-0.000151032 	0
-0.0156204 	0.0138981 	0 	0.635432 	0.0811753 	-0.000280782 	0
-0.0156204 	0.0142176 	0 	0.635255 	0.102329 	-0.000447464 	0
-0.0156204 	0.0145371 	0 	0.635085 	0.123266 	-0.000648228 	0
-0.0156204 	0.0148566 	0 	0.634922 	0.143998 	-0.000878341 	0
-0.0156204 	0.0151761 	0 	0.634764 	0.164549 	-0.00114233 	0
-0.0156204 	0.0154956 	0 	0.634611 	0.18486 	-0.00145573 	0
-0.0156204 	0.0158151 	0 	0.634471 	0.205005 	-0.00176118 	0
-0.0156204 	0.0161346 	0 	0.634333 	0.224887 	-0.00214716 	0
-0.0156204 	0.0164541 	0 	0.634208 	0.244656 	-0.00249573 	0
-0.0156204 	0.0167736 	0 	0.634092 	0.264062 	-0.0029385 	0
-0.0156204 	0.0170931 	0 	0.633981 	0.28341 	-0.00336414 	0
-0.0156204 	0.0174126 	0 	0.633886 	0.30249 	-0.00380296 	0
-0.0156204 	0.0177321 	0 	0.633801 	0.3213 	-0.00431006 	0
-0.0156204 	0.0180516 	0 	0.633719 	0.340059 	-0.00478744 	0
-0.0156204 	0.0183711 	0 	0.633653 	0.358576 	-0.00527101 	0
-0.0156204 	0.0186906 	0 	0.633609 	0.376689 	-0.00583309 	0
-0.0156204 	0.0190101 	0 	0.633566 	0.394801 	-0.00639514 	0
-0.0156204 	0.0193296 	0 	0.633523 	0.41284 	-0.00689413 	0
-0.0156204 	0.0196491 	0 	0.633511 	0.430443 	-0.00745415 	0
-0.0156204 	0.0199686 	0 	0.633523 	0.447733 	-0.00805804 	0
-0.0156204 	0.020288 	0 	0.633535 	0.465024 	-0.00866194 	0
-0.0156204 	0.0206075 	0 	0.633539 	0.482282 	-0.00921805 	0
-0.0156204 	0.020927 	0 	0.633546 	0.499474 	-0.00976489 	0
-0.0156204 	0.0212465 	0 	0.633627 	0.515811 	-0.0103889 	0
-0.0156204 	0.021566 	0 	0.633708 	0.532148 	-0.011013 	0
-0.0156204 	0.0218855 	0 	0.633789 	0.548485 	-0.011637 	0
-0.0156204 	0.022205 	0 	0.633856 	0.564814 	-0.0122244 	0
-0.0156204 	0.0225245 	0 	0.633916 	0.581138 	-0.0127926 	0
-0.0156204 	0.022844 	0 	0.634036 	0.596827 	-0.0133885 	0
-0.0156204 	0.0231635 	0 	0.634199 	0.612074 	-0.0140037 	0
-0.0156204 	0.023483 	0 	0.634361 	0.627321 	-0.0146188 	0
-0.0156204 	0.0238025 	0 	0.634524 	0.642568 	-0.015234 	0
-0.0156204 	0.024122 	0 	0.634671 	0.657821 	-0.0158278 	0
-0.0156204 	0.0244415 	0 	0.634801 	0.673082 	-0.0163982 	0
-0.0156204 	0.024761 	0 	0.634931 	0.688343 	-0.0169686 	0
-0.0156204 	0.0250805 	0 	0.635178 	0.702398 	-0.017542 	0
-0.0156204 	0.0254 	0 	0.635429 	0.716417 	-0.0181155 	0
-0.014998 	0.0129396 	0 	0.634167 	0.0165757 	-1.21669e-05 	0
-0.014998 	0.0132591 	0 	0.633968 	0.0383999 	-6.4488e-05 	0
-0.014998 	0.0135786 	0 	0.633773 	0.0600224 	-0.000157621 	0
-0.014998 	0.0138981 	0 	0.633585 	0.0814298 	-0.000291837 	0
-0.014998 	0.0142176 	0 	0.633401 	0.102639 	-0.000464206 	0
-0.014998 	0.0145371 	0 	0.633223 	0.123642 	-0.000673348 	0
-0.014998 	0.0148566 	0 	0.633051 	0.144449 	-0.000915705 	0
-0.014998 	0.0151761 	0 	0.632884 	0.165065 	-0.00119287 	0
-0.014998 	0.0154956 	0 	0.632728 	0.185399 	-0.00151081 	0
-0.014998 	0.0158151 	0 	0.632576 	0.205641 	-0.00184156 	0
-0.014998 	0.0161346 	0 	0.632438 	0.225522 	-0.00222755 	0
-0.014998 	0.0164541 	0 	0.6323 	0.245398 	-0.00261162 	0
-0.014998 	0.0167736 	0 	0.632184 	0.264804 	-0.0030544 	0
-0.014998 	0.0170931 	0 	0.632068 	0.284199 	-0.00350095 	0
-0.014998 	0.0174126 	0 	0.631966 	0.303343 	-0.00396748 	0
-0.014998 	0.0177321 	0 	0.631881 	0.322153 	-0.00447458 	0
-0.014998 	0.0180516 	0 	0.631796 	0.340962 	-0.00498167 	0
-0.014998 	0.0183711 	0 	0.631725 	0.359537 	-0.00549991 	0
-0.014998 	0.0186906 	0 	0.631682 	0.37765 	-0.00606198 	0
-0.014998 	0.0190101 	0 	0.631639 	0.395762 	-0.00662404 	0
-0.014998 	0.0193296 	0 	0.631595 	0.413875 	-0.00718611 	0
-0.014998 	0.0196491 	0 	0.631584 	0.431499 	-0.00776434 	0
-0.014998 	0.0199686 	0 	0.631596 	0.448789 	-0.00836823 	0
-0.014998 	0.020288 	0 	0.631608 	0.46608 	-0.00897213 	0
-0.014998 	0.0206075 	0 	0.63162 	0.483371 	-0.00957604 	0
-0.014998 	0.020927 	0 	0.631635 	0.500597 	-0.0101714 	0
-0.014998 	0.0212465 	0 	0.631716 	0.516934 	-0.0107955 	0
-0.014998 	0.021566 	0 	0.631797 	0.533272 	-0.0114195 	0
-0.014998 	0.0218855 	0 	0.631878 	0.549608 	-0.0120436 	0
-0.014998 	0.022205 	0 	0.631959 	0.565945 	-0.0126676 	0
-0.014998 	0.0225245 	0 	0.632041 	0.582282 	-0.0132917 	0
-0.014998 	0.022844 	0 	0.632166 	0.597974 	-0.0138999 	0
-0.014998 	0.0231635 	0 	0.632328 	0.613221 	-0.014515 	0
-0.014998 	0.023483 	0 	0.63249 	0.628468 	-0.0151302 	0
-0.014998 	0.0238025 	0 	0.632653 	0.643715 	-0.0157453 	0
-0.014998 	0.024122 	0 	0.632815 	0.658962 	-0.0163604 	0
-0.014998 	0.0244415 	0 	0.632978 	0.674209 	-0.0169756 	0
-0.014998 	0.024761 	0 	0.633134 	0.689459 	-0.0175817 	0
-0.014998 	0.0250805 	0 	0.633381 	0.703514 	-0.0181551 	0
-0.014998 	0.0254 	0 	0.633632 	0.717534 	-0.0187287 	0
-0.0143756 	0.0129396 	0 	0.632301 	0.0166465 	-1.29728e-05 	0
-0.0143756 	0.0132591 	0 	0.632091 	0.0385496 	-6.81573e-05 	0
-0.0143756 	0.0135786 	0 	0.631886 	0.0602541 	-0.000166611 	0
-0.0143756 	0.0138981 	0 	0.63168 	0.081776 	-0.000312637 	0
-0.0143756 	0.0142176 	0 	0.631486 	0.10306 	-0.000495682 	0
-0.0143756 	0.0145371 	0 	0.631295 	0.124148 	-0.000720249 	0
-0.0143756 	0.0148566 	0 	0.631114 	0.145014 	-0.000975792 	0
-0.0143756 	0.0151761 	0 	0.630942 	0.165668 	-0.00126208 	0
-0.0143756 	0.0154956 	0 	0.63077 	0.186111 	-0.00161182 	0
-0.0143756 	0.0158151 	0 	0.630615 	0.206375 	-0.00194983 	0
-0.0143756 	0.0161346 	0 	0.630463 	0.226352 	-0.00237291 	0
-0.0143756 	0.0164541 	0 	0.630325 	0.246234 	-0.00275889 	0
-0.0143756 	0.0167736 	0 	0.630195 	0.265755 	-0.00325987 	0
-0.0143756 	0.0170931 	0 	0.630079 	0.28515 	-0.00370642 	0
-0.0143756 	0.0174126 	0 	0.629972 	0.304348 	-0.00420792 	0
-0.0143756 	0.0177321 	0 	0.629882 	0.323219 	-0.00475831 	0
-0.0143756 	0.0180516 	0 	0.629797 	0.342029 	-0.00526539 	0
-0.0143756 	0.0183711 	0 	0.629726 	0.360637 	-0.00581391 	0
-0.0143756 	0.0186906 	0 	0.629686 	0.378813 	-0.00644211 	0
-0.0143756 	0.0190101 	0 	0.629642 	0.396925 	-0.00700417 	0
-0.0143756 	0.0193296 	0 	0.629599 	0.415037 	-0.00756624 	0
-0.0143756 	0.0196491 	0 	0.629597 	0.432692 	-0.00819322 	0
-0.0143756 	0.0199686 	0 	0.629623 	0.450014 	-0.00885874 	0
-0.0143756 	0.020288 	0 	0.629635 	0.467305 	-0.00946264 	0
-0.0143756 	0.0206075 	0 	0.629647 	0.484596 	-0.0100665 	0
-0.0143756 	0.020927 	0 	0.629665 	0.501829 	-0.0106752 	0
-0.0143756 	0.0212465 	0 	0.629775 	0.518168 	-0.0113584 	0
-0.0143756 	0.021566 	0 	0.629877 	0.534507 	-0.0120248 	0
-0.0143756 	0.0218855 	0 	0.629958 	0.550843 	-0.0126488 	0
-0.0143756 	0.022205 	0 	0.630039 	0.567181 	-0.0132729 	0
-0.0143756 	0.0225245 	0 	0.63012 	0.583518 	-0.0138969 	0
-0.0143756 	0.022844 	0 	0.630273 	0.599198 	-0.0145415 	0
-0.0143756 	0.0231635 	0 	0.630475 	0.61442 	-0.0152005 	0
-0.0143756 	0.023483 	0 	0.63066 	0.629653 	-0.0158401 	0
-0.0143756 	0.0238025 	0 	0.630823 	0.644901 	-0.0164553 	0
-0.0143756 	0.024122 	0 	0.630985 	0.660147 	-0.0170704 	0
-0.0143756 	0.0244415 	0 	0.631148 	0.675395 	-0.0176856 	0
-0.0143756 	0.024761 	0 	0.63131 	0.690642 	-0.0183007 	0
-0.0143756 	0.0250805 	0 	0.631604 	0.704655 	-0.0189012 	0
-0.0143756 	0.0254 	0 	0.631902 	0.718633 	-0.0195012 	0
-0.0137531 	0.0129396 	0 	0.630431 	0.0167136 	-1.36973e-05 	0
-0.0137531 	0.0132591 	0 	0.630209 	0.0387041 	-7.20315e-05 	0
-0.0137531 	0.0135786 	0 	0.629992 	0.0604929 	-0.000176089 	0
-0.0137531 	0.0138981 	0 	0.629779 	0.0820694 	-0.000327166 	0
-0.0137531 	0.0142176 	0 	0.629571 	0.103444 	-0.000521593 	0
-0.0137531 	0.0145371 	0 	0.629371 	0.124596 	-0.000756058 	0
-0.0137531 	0.0148566 	0 	0.629179 	0.145535 	-0.00102514 	0
-0.0137531 	0.0151761 	0 	0.628992 	0.166289 	-0.00133487 	0
-0.0137531 	0.0154956 	0 	0.628814 	0.186777 	-0.00169815 	0
-0.0137531 	0.0158151 	0 	0.628649 	0.207107 	-0.00205599 	0
-0.0137531 	0.0161346 	0 	0.628488 	0.227146 	-0.00250293 	0
-0.0137531 	0.0164541 	0 	0.628342 	0.247086 	-0.00291155 	0
-0.0137531 	0.0167736 	0 	0.628209 	0.266625 	-0.00342181 	0
-0.0137531 	0.0170931 	0 	0.62808 	0.286125 	-0.00392196 	0
-0.0137531 	0.0174126 	0 	0.627974 	0.305322 	-0.00442346 	0
-0.0137531 	0.0177321 	0 	0.62788 	0.324236 	-0.00500364 	0
-0.0137531 	0.0180516 	0 	0.62779 	0.343119 	-0.00556251 	0
-0.0137531 	0.0183711 	0 	0.627719 	0.361728 	-0.00611102 	0
-0.0137531 	0.0186906 	0 	0.627678 	0.379911 	-0.00674715 	0
-0.0137531 	0.0190101 	0 	0.627638 	0.398093 	-0.00738326 	0
-0.0137531 	0.0193296 	0 	0.627595 	0.416223 	-0.00796337 	0
-0.0137531 	0.0196491 	0 	0.627593 	0.433877 	-0.00859034 	0
-0.0137531 	0.0199686 	0 	0.627621 	0.451203 	-0.00926379 	0
-0.0137531 	0.020288 	0 	0.627648 	0.468529 	-0.00993726 	0
-0.0137531 	0.0206075 	0 	0.627668 	0.485839 	-0.0105773 	0
-0.0137531 	0.020927 	0 	0.627686 	0.503072 	-0.011186 	0
-0.0137531 	0.0212465 	0 	0.627796 	0.519411 	-0.0118691 	0
-0.0137531 	0.021566 	0 	0.627906 	0.535751 	-0.0125523 	0
-0.0137531 	0.0218855 	0 	0.628016 	0.55209 	-0.0132354 	0
-0.0137531 	0.022205 	0 	0.628117 	0.568428 	-0.0139004 	0
-0.0137531 	0.0225245 	0 	0.628198 	0.584766 	-0.0145245 	0
-0.0137531 	0.022844 	0 	0.628351 	0.600446 	-0.0151691 	0
-0.0137531 	0.0231635 	0 	0.628554 	0.615668 	-0.015828 	0
-0.0137531 	0.023483 	0 	0.628756 	0.630891 	-0.016487 	0
-0.0137531 	0.0238025 	0 	0.628959 	0.646113 	-0.0171459 	0
-0.0137531 	0.024122 	0 	0.62916 	0.661337 	-0.0178027 	0
-0.0137531 	0.0244415 	0 	0.629322 	0.676584 	-0.0184179 	0
-0.0137531 	0.024761 	0 	0.629485 	0.691831 	-0.019033 	0
-0.0137531 	0.0250805 	0 	0.629779 	0.705845 	-0.0196335 	0
-0.0137531 	0.0254 	0 	0.630077 	0.719822 	-0.0202335 	0
-0.0131307 	0.0129396 	0 	0.628557 	0.0167725 	-1.42632e-05 	0
-0.0131307 	0.0132591 	0 	0.628323 	0.0388505 	-7.55626e-05 	0
-0.0131307 	0.0135786 	0 	0.628093 	0.0607217 	-0.000184903 	0
-0.0131307 	0.0138981 	0 	0.627868 	0.0823791 	-0.000343752 	0
-0.0131307 	0.0142176 	0 	0.62765 	0.103821 	-0.000546709 	0
-0.0131307 	0.0145371 	0 	0.627438 	0.125052 	-0.000793732 	0
-0.0131307 	0.0148566 	0 	0.627232 	0.146082 	-0.00108112 	0
-0.0131307 	0.0151761 	0 	0.627037 	0.166889 	-0.00140325 	0
-0.0131307 	0.0154956 	0 	0.626851 	0.187428 	-0.00178045 	0
-0.0131307 	0.0158151 	0 	0.626669 	0.207868 	-0.00217332 	0
-0.0131307 	0.0161346 	0 	0.626508 	0.227911 	-0.00262242 	0
-0.0131307 	0.0164541 	0 	0.626348 	0.24795 	-0.00306936 	0
-0.0131307 	0.0167736 	0 	0.626212 	0.267513 	-0.00359255 	0
-0.0131307 	0.0170931 	0 	0.626079 	0.287041 	-0.00410724 	0
-0.0131307 	0.0174126 	0 	0.625962 	0.306332 	-0.00466251 	0
-0.0131307 	0.0177321 	0 	0.625869 	0.325246 	-0.00524269 	0
-0.0131307 	0.0180516 	0 	0.625775 	0.344159 	-0.00582285 	0
-0.0131307 	0.0183711 	0 	0.6257 	0.36285 	-0.00643704 	0
-0.0131307 	0.0186906 	0 	0.62566 	0.381033 	-0.00707316 	0