x,y,z,p,U_0,U_1,U_2
-0.0508,0.0508,0,25.967,61.5678,-0.567692,0
