0.0508 	0.731985 	1.41026 	-0.0162604 	0
