x,y,z,p,U_0,U_1,U_2
-0.0508,0.0508,0,-0.0544693,1.24963,-0.00573911,0
