y,p,U_0,U_1,U_2
0,-0.0289888,0,0,0
1.37955e-05,-0.0289893,-0.000188103,-2.69002e-08,-1.54387e-26
2.92331e-05,-0.0289896,-0.000391524,-1.33948e-07,4.02718e-24
4.65113e-05,-0.0289899,-0.000617165,-3.55678e-07,-4.84541e-25
6.58528e-05,-0.0289902,-0.000867204,-7.26345e-07,5.63844e-24
8.75077e-05,-0.0289905,-0.00114395,-1.29135e-06,-1.21557e-23
0.000111757,-0.0289909,-0.00144985,-2.11146e-06,2.16638e-24
0.000138915,-0.0289914,-0.00178741,-3.26459e-06,2.56522e-23
0.000169336,-0.0289919,-0.00215923,-4.84964e-06,-1.55102e-23
0.000203417,-0.0289924,-0.00256786,-6.99206e-06,-5.1167e-23
0.000241604,-0.028993,-0.00301578,-9.85076e-06,4.28793e-23
0.000284398,-0.0289937,-0.00350527,-1.36267e-05,-2.4138e-23
0.000332361,-0.0289945,-0.00403821,-1.85736e-05,-1.86038e-22
0.000386126,-0.0289954,-0.00461593,-2.50112e-05,8.32976e-23
0.000446401,-0.0289963,-0.00523886,-3.33416e-05,1.67803e-22
0.000513985,-0.0289974,-0.00590623,-4.40701e-05,-2.79653e-22
0.000589773,-0.0289986,-0.00661554,-5.78304e-05,3.39844e-23
0.000674771,-0.0289999,-0.00736192,-7.54155e-05,1.40763e-22
0.000770111,-0.0290014,-0.00813735,-9.78164e-05,2.1507e-22
0.000877061,-0.029003,-0.00892956,-0.000126269,-2.79891e-22
0.000997051,-0.0290048,-0.00972074,-0.000162311,3.25602e-22
0.00113168,-0.0290068,-0.0104857,-0.00020785,4.27061e-22
0.00128277,-0.029009,-0.0111899,-0.00026525,6.89935e-23
0.00145232,-0.0290114,-0.0117862,-0.000337429,1.37067e-21
0.00164263,-0.029014,-0.012212,-0.000427973,-1.63841e-21
0.00185625,-0.0290169,-0.012384,-0.000541281,-6.35455e-22
0.00209606,-0.0290201,-0.0121932,-0.000682717,7.63289e-22
0.0023653,-0.0290235,-0.0114978,-0.000858795,-3.23141e-21
0.0026676,-0.0290273,-0.0101142,-0.00107738,2.72955e-22
0.00300706,-0.0290314,-0.00780714,-0.0013479,2.5301e-21
0.00338828,-0.029036,-0.00427605,-0.00168158,0
0.00381642,-0.029041,0.000859588,-0.00209167,-8.26571e-21
0.0042973,-0.0290465,0.00807824,-0.00259373,9.59828e-22
0.00483747,-0.0290527,0.017976,-0.00320603,1.7727e-20
0.00544427,-0.0290593,0.0306686,-0.00391578,1.26125e-20
0.00602098,-0.0290661,0.0454824,-0.00467624,9.3931e-23
0.00660124,-0.029073,0.0621411,-0.00547261,-4.25783e-21
0.00718535,-0.0290802,0.0807982,-0.00631215,-1.59851e-20
0.00777365,-0.0290878,0.101405,-0.00719142,-1.9745e-22
0.00836651,-0.0290958,0.123904,-0.00810711,1.35018e-20
0.00896431,-0.0291042,0.148236,-0.00905603,-7.57365e-21
0.00956749,-0.0291133,0.174332,-0.0100349,-5.57357e-21
0.0101765,-0.029123,0.20212,-0.0110405,6.39048e-22
0.0107919,-0.0291335,0.231519,-0.0120692,4.3619e-25
0.0114142,-0.0291449,0.262443,-0.0131173,-6.81141e-22
0.012044,-0.0291573,0.294798,-0.0141808,1.84066e-20
0.0126819,-0.0291709,0.328484,-0.0152555,4.07645e-22
0.0133287,-0.0291859,0.36339,-0.016337,-4.50007e-20
0.0139851,-0.0292018,0.39867,-0.0173975,-2.70576e-20
0.0145992,-0.0292188,0.433658,-0.0184182,2.57432e-20
0.0152409,-0.0292377,0.469414,-0.0194328,2.57902e-20
0.0159119,-0.0292589,0.506808,-0.0204641,-2.35671e-20
0.016614,-0.0292829,0.545726,-0.0215049,-2.35402e-20
0.0173491,-0.02931,0.58601,-0.0225482,2.22588e-20
0.018119,-0.0293407,0.627461,-0.0235863,6.66919e-20
0.0189258,-0.0293754,0.669839,-0.0246112,2.38252e-20
0.0197718,-0.0294145,0.712867,-0.0256148,-2.05406e-20
0.0206593,-0.0294584,0.756237,-0.0265887,-3.91692e-20
0.0215907,-0.0295075,0.799621,-0.0275248,-7.80869e-20
0.0225687,-0.0295622,0.842675,-0.0284147,3.20049e-20
0.023596,-0.0296234,0.885046,-0.0292523,7.10318e-20
0.0246755,-0.0296941,0.927732,-0.0300552,6.48727e-23
0.0259626,-0.0297767,0.971564,-0.0308264,-1.24103e-20
0.0273361,-0.0298709,1.01459,-0.0315179,-3.74467e-20
0.0288025,-0.0299755,1.05499,-0.0320956,8.16332e-21
0.030369,-0.0300907,1.09213,-0.0325461,3.34921e-20
0.0320431,-0.0302166,1.1254,-0.032857,-1.97177e-20
0.033833,-0.0303529,1.15431,-0.0330197,6.67249e-21
0.0357475,-0.0304986,1.1784,-0.0330304,1.12137e-20
0.0377646,-0.0306524,1.19747,-0.0328955,-1.82644e-20
0.0399122,-0.0308137,1.21178,-0.0326279,1.5547e-20
0.0422027,-0.0309819,1.22182,-0.0322439,1.04219e-20
0.0446494,-0.0311563,1.22827,-0.0317641,-9.30702e-21
0.0472662,-0.0313361,1.23195,-0.0312109,5.49368e-21
0.0500679,-0.0315207,1.23374,-0.0306048,-1.45015e-20
0.05307,-0.0317101,1.23444,-0.0299628,-1.68262e-20
0.0562894,-0.0319039,1.23464,-0.0292938,9.37329e-21
0.0597436,-0.0321025,1.23467,-0.0286038,-6.31408e-21
0.0634517,-0.0323056,1.23451,-0.0278868,-4.1595e-21
0.0674339,-0.0325147,1.23372,-0.0271382,1.0663e-20
0.0717118,-0.0327291,1.23092,-0.0263193,3.99676e-21
0.0763087,-0.0329506,1.22282,-0.0253756,1.32804e-22
0.0812495,-0.0331807,1.20122,-0.0240983,1.07105e-21
0.0865609,-0.0334109,1.14884,-0.0220958,1.92384e-21
0.0922714,-0.0336005,1.05051,-0.0190265,-5.78974e-21
0.0960782,-0.0337237,0.925537,-0.0155463,-3.22446e-21
0.0992295,-0.0338034,0.792335,-0.0122816,-8.067e-22
0.101838,-0.0338532,0.662051,-0.0093566,3.2102e-21
0.103998,-0.0338866,0.543643,-0.00688756,3.34798e-21
0.105786,-0.0339081,0.441497,-0.00495418,-2.90796e-21
0.107266,-0.0339232,0.35638,-0.0034967,-2.53658e-21
0.108492,-0.033934,0.286955,-0.00243857,6.02027e-21
0.109506,-0.0339422,0.230992,-0.00168575,7.59353e-21
0.110346,-0.0339487,0.186119,-0.0011581,1.45381e-21
0.111042,-0.0339539,0.150182,-0.000791801,2.41476e-22
0.111618,-0.0339582,0.121364,-0.000539169,-1.11878e-21
0.112095,-0.0339617,0.098198,-0.000365745,9.65452e-22
0.11249,-0.0339646,0.0795158,-0.00024713,-9.93284e-22
0.112817,-0.033967,0.0644005,-0.000166257,-4.05259e-22
0.113087,-0.033969,0.0521322,-0.000111284,2.47847e-22
0.113312,-0.0339707,0.0421456,-7.40372e-05,-2.5703e-22
0.113497,-0.0339721,0.033995,-4.88918e-05,2.79924e-23
0.113651,-0.0339732,0.0273275,-3.19893e-05,4.78927e-24
0.113779,-0.0339742,0.0218621,-2.06875e-05,9.05364e-23
0.113884,-0.033975,0.0173745,-1.31807e-05,-3.52294e-24
0.113971,-0.0339756,0.0136842,-8.23658e-06,-9.81869e-23
0.114044,-0.0339761,0.0106458,-5.01634e-06,-2.09096e-25
0.114104,-0.0339766,0.00814143,-2.94994e-06,-1.03659e-24
0.114154,-0.033977,0.00607528,-1.65094e-06,2.17886e-23
0.114195,-0.0339773,0.00436937,-8.58309e-07,1.29705e-24
0.114229,-0.0339776,0.00295995,-3.96758e-07,-5.73602e-24
0.114257,-0.0339778,0.00179482,-1.49521e-07,-2.52592e-24
0.114281,-0.033978,0.000831156,-3.65426e-08,1.18339e-24
0.1143,-0.0339781,0,0,0
