y,p,U_0,U_1,U_2
0,-0.0206592,0,0,0
1.60573e-05,-0.0206617,-6.70631e-05,-3.01096e-08,1.07437e-24
3.39444e-05,-0.020662,-0.000138121,-1.8266e-07,2.09169e-24
5.38753e-05,-0.0206623,-0.0002151,-5.05799e-07,-2.01577e-24
7.6089e-05,-0.0206627,-0.000298163,-1.04374e-06,-1.75388e-23
0.000100853,-0.0206631,-0.00038736,-1.858e-06,-2.0232e-23
0.000128468,-0.0206635,-0.000482585,-3.0318e-06,1.79887e-23
0.000159269,-0.020664,-0.000583519,-4.67094e-06,2.4341e-23
0.000193631,-0.0206646,-0.000689549,-6.90837e-06,-6.06139e-23
0.000231976,-0.0206652,-0.000799673,-9.91121e-06,-3.25892e-23
0.000274776,-0.0206659,-0.000912373,-1.38894e-05,1.16498e-22
0.000322558,-0.0206667,-0.00102545,-1.91062e-05,3.90731e-23
0.000375915,-0.0206676,-0.00113582,-2.58913e-05,1.22654e-22
0.00043551,-0.0206686,-0.00123924,-3.46565e-05,4.18331e-23
0.000502087,-0.0206697,-0.00133002,-4.59154e-05,-1.99423e-22
0.000576479,-0.0206709,-0.00140051,-6.03076e-05,1.93751e-22
0.000659623,-0.0206723,-0.00144063,-7.86282e-05,2.62973e-22
0.000752564,-0.0206738,-0.00143719,-0.000101863,-3.28632e-22
0.00085648,-0.0206755,-0.00137297,-0.000131233,-9.12803e-22
0.000972688,-0.0206773,-0.00122566,-0.000168245,-2.68105e-22
0.00110267,-0.0206793,-0.000966477,-0.000214755,3.15972e-22
0.00124808,-0.0206815,-0.000558422,-0.000273042,-1.03916e-25
0.00141078,-0.0206839,4.59191e-05,-0.000345896,2.62392e-22
0.00159286,-0.0206866,0.000907132,-0.000436717,4.9753e-22
0.00179667,-0.0206895,0.00210244,-0.000549634,-1.2083e-21
0.00202483,-0.0206926,0.00373004,-0.000689632,-1.23633e-22
0.0022803,-0.020696,0.00591453,-0.000862702,1.65206e-21
0.00256639,-0.0206996,0.00881364,-0.00107598,3.32042e-22
0.00288683,-0.0207036,0.0126266,-0.00133794,4.53086e-21
0.00324579,-0.0207079,0.0176041,-0.00165847,-4.09747e-21
0.00364796,-0.0207125,0.0240612,-0.00204907,-4.65009e-21
0.00409862,-0.0207176,0.0323913,-0.00252289,1.42377e-21
0.00460367,-0.0207233,0.0430834,-0.00309499,2.76255e-22
0.00516977,-0.0207297,0.0567407,-0.00378269,2.83581e-21
0.00580438,-0.0207367,0.0733579,-0.00456953,7.44138e-21
0.00641289,-0.020744,0.0920922,-0.00540453,6.0736e-21
0.00702859,-0.0207519,0.11268,-0.00627229,-2.98711e-21
0.00765211,-0.0207606,0.135351,-0.00718021,-4.32811e-21
0.00828413,-0.0207702,0.160089,-0.00812422,-4.3424e-21
0.00892537,-0.020781,0.186867,-0.00910044,-1.66878e-21
0.00957665,-0.0207931,0.215646,-0.0101052,-2.58781e-21
0.0102388,-0.0208069,0.246374,-0.011135,-2.17425e-23
0.0109129,-0.0208226,0.278983,-0.012186,2.53167e-21
0.0115998,-0.0208406,0.313394,-0.0132543,-2.83818e-20
0.0123007,-0.0208611,0.349511,-0.0143358,-4.00381e-20
0.0130168,-0.0208847,0.387221,-0.015426,-2.2871e-22
0.0137495,-0.0209119,0.426391,-0.0165201,3.88277e-20
0.0145001,-0.020943,0.466871,-0.0176131,-1.01561e-20
0.0152702,-0.0209775,0.507742,-0.0186778,1.43197e-20
0.0160061,-0.0210157,0.548114,-0.019693,5.82822e-20
0.0167682,-0.0210586,0.588658,-0.0206812,1.50681e-20
0.017558,-0.0211073,0.629966,-0.021657,-2.0499e-20
0.0183772,-0.0211624,0.671804,-0.022612,-9.75576e-20
0.0192275,-0.0212247,0.713912,-0.0235399,-1.56645e-20
0.0201109,-0.0212949,0.756017,-0.0244346,1.26914e-19
0.0210292,-0.0213736,0.797834,-0.02529,1.5164e-20
0.0219845,-0.0214615,0.839072,-0.0261004,-3.95479e-20
0.022979,-0.0215593,0.879445,-0.0268601,4.53684e-22
0.0240151,-0.0216674,0.918665,-0.0275635,-5.99541e-20
0.0250953,-0.0217865,0.956452,-0.028205,2.14317e-20
0.0262221,-0.0219173,0.99253,-0.0287805,1.01295e-19
0.0273983,-0.022065,1.02758,-0.0292997,1.51002e-20
0.0287709,-0.0222345,1.06208,-0.0297595,-2.26047e-20
0.0302252,-0.0224245,1.09459,-0.0301292,2.09275e-20
0.0317675,-0.0226318,1.12383,-0.030392,-7.22039e-21
0.0334043,-0.0228565,1.14948,-0.0305443,-1.86012e-20
0.035143,-0.0230984,1.1713,-0.0305838,1.14084e-21
0.0369913,-0.0233567,1.18919,-0.0305112,2.28247e-21
0.0389573,-0.0236286,1.20312,-0.0303342,-3.30549e-20
0.0409878,-0.0239109,1.21329,-0.0300695,-2.42965e-20
0.0431273,-0.0242028,1.22031,-0.0297318,2.07242e-20
0.0453892,-0.0245054,1.22482,-0.0293333,0
0.0477877,-0.0248187,1.22746,-0.0288877,-2.10661e-20
0.0503372,-0.0251428,1.22883,-0.0284065,-7.97025e-22
0.0530528,-0.025478,1.22947,-0.0278979,2.0275e-20
0.0559504,-0.0258249,1.22975,-0.0273668,-1.94882e-20
0.0590466,-0.0261839,1.22989,-0.0268139,-1.97702e-20
0.0623591,-0.026556,1.22989,-0.0262369,1.79019e-20
0.0659064,-0.0269417,1.22945,-0.0256254,1.81996e-20
0.0697084,-0.0273422,1.22771,-0.0249638,-8.40797e-21
0.073786,-0.027757,1.22272,-0.0242046,-5.30941e-22
0.0781617,-0.0281857,1.21005,-0.0232586,-4.00267e-21
0.0828595,-0.0286243,1.1802,-0.0219085,1.21124e-20
0.0879051,-0.0290546,1.11537,-0.0197888,1.22838e-20
0.0933258,-0.0294027,1.0031,-0.0166236,-1.26344e-20
0.0969433,-0.0296169,0.868091,-0.0131831,0
0.0999389,-0.029742,0.731915,-0.0101227,-1.4064e-20
0.10242,-0.0298154,0.603675,-0.00749655,-4.61661e-21
0.104474,-0.0298596,0.490567,-0.00537652,3.1565e-20
0.106175,-0.0298859,0.395309,-0.00378048,3.56003e-20
0.107584,-0.0299025,0.317362,-0.00262005,-3.14842e-20
0.108751,-0.0299135,0.254609,-0.00179992,-2.10802e-20
0.109718,-0.0299213,0.204478,-0.00122942,1.81177e-20
0.110519,-0.0299271,0.164522,-0.00083651,-5.54233e-21
0.111182,-0.0299315,0.13265,-0.000567542,1.36022e-21
0.111731,-0.029935,0.107157,-0.00038411,-2.69056e-21
0.112187,-0.0299378,0.0866961,-0.00025932,7.70757e-23
0.112564,-0.02994,0.0702111,-0.000174581,3.31443e-21
0.112876,-0.0299419,0.0568803,-0.000117131,-1.65284e-21
0.113135,-0.0299434,0.0460627,-7.82524e-05,-5.61276e-22
0.11335,-0.0299447,0.0372567,-5.19973e-05,2.80048e-22
0.113528,-0.0299457,0.0300682,-3.43158e-05,1.68537e-22
0.113675,-0.0299466,0.0241856,-2.24503e-05,2.87733e-23
0.113798,-0.0299473,0.0193614,-1.45245e-05,-7.34316e-23
0.113899,-0.0299479,0.0153979,-9.26234e-06,-7.78298e-23
0.113983,-0.0299484,0.0121364,-5.79644e-06,-3.03482e-23
0.114053,-0.0299488,0.00944882,-3.5378e-06,8.07567e-23
0.11411,-0.0299491,0.00723163,-2.087e-06,-1.93429e-23
0.114158,-0.0299494,0.00540064,-1.17369e-06,-9.09343e-25
0.114198,-0.0299496,0.00388725,-6.15425e-07,-1.19254e-23
0.114231,-0.0299498,0.00263542,-2.89698e-07,1.01292e-24
0.114258,-0.02995,0.00159923,-1.14321e-07,-2.84764e-25
0.114281,-0.0299501,0.000741041,-3.13953e-08,1.39398e-24
0.1143,-0.0299504,0,0,0
