0 	0.625598 	0 	0 	0
1.37955e-05 	0.625598 	0.000619683 	-9.82593e-09 	2.09113e-26
2.92331e-05 	0.625597 	0.00129505 	-3.61794e-08 	-2.79622e-24
4.65113e-05 	0.625595 	0.00205069 	-8.72777e-08 	3.39522e-25
6.58528e-05 	0.625592 	0.00289627 	-1.72237e-07 	-3.95067e-24
8.75077e-05 	0.62559 	0.0038426 	-3.01865e-07 	8.1939e-24
0.000111757 	0.625587 	0.00490183 	-4.90126e-07 	-1.11639e-24
0.000138915 	0.625583 	0.00608755 	-7.55e-07 	-1.80609e-23
0.000169336 	0.62558 	0.00741499 	-1.11946e-06 	1.05104e-23
0.000203417 	0.625575 	0.00890124 	-1.61274e-06 	3.52834e-23
0.000241604 	0.625571 	0.0105654 	-2.27205e-06 	-2.87735e-23
0.000284398 	0.625565 	0.0124289 	-3.14464e-06 	1.71723e-23
0.000332361 	0.62556 	0.0145158 	-4.29044e-06 	1.27698e-22
0.000386126 	0.625554 	0.0168528 	-5.78541e-06 	-5.7348e-23
0.000446401 	0.625546 	0.0194701 	-7.72574e-06 	-1.15939e-22
0.000513985 	0.625538 	0.0224011 	-1.02331e-05 	1.91822e-22
0.000589773 	0.625529 	0.0256837 	-1.34613e-05 	-2.33113e-23
0.000674771 	0.625519 	0.0293596 	-1.76046e-05 	-9.91644e-23
0.000770111 	0.625507 	0.0334758 	-2.29082e-05 	-1.4427e-22
0.000877061 	0.625495 	0.0380847 	-2.96815e-05 	2.01008e-22
0.000997051 	0.625481 	0.0432445 	-3.83145e-05 	-2.19993e-22
0.00113168 	0.625465 	0.0490204 	-4.92985e-05 	-2.84643e-22
0.00128277 	0.625447 	0.0554846 	-6.32523e-05 	-4.82441e-23
0.00145232 	0.625427 	0.0627176 	-8.09541e-05 	-9.79899e-22
0.00164263 	0.625405 	0.0708086 	-0.000103382 	1.10396e-21
0.00185625 	0.625381 	0.0798566 	-0.000131767 	4.7334e-22
0.00209606 	0.625353 	0.0899709 	-0.00016765 	-5.11818e-22
0.0023653 	0.625322 	0.101272 	-0.000212966 	2.23328e-21
0.0026676 	0.625287 	0.113894 	-0.000270136 	-1.9134e-22
0.00300706 	0.625249 	0.127981 	-0.00034219 	-1.77124e-21
0.00338828 	0.625207 	0.143694 	-0.000432906 	0
0.00381642 	0.625159 	0.161206 	-0.000546995 	5.83221e-21
0.0042973 	0.625106 	0.180707 	-0.000690298 	-6.93942e-22
0.00483747 	0.625047 	0.202401 	-0.000870023 	-1.25206e-20
0.00544427 	0.624984 	0.225475 	-0.00108491 	-8.77988e-21
0.00602098 	0.624921 	0.248392 	-0.0013228 	-2.27578e-23
0.00660124 	0.624859 	0.270872 	-0.00158004 	3.21856e-21
0.00718535 	0.624797 	0.293255 	-0.00185975 	1.16368e-20
0.00777365 	0.624733 	0.315549 	-0.00216189 	-7.47956e-23
0.00836651 	0.624669 	0.337767 	-0.00248639 	-1.00931e-20
0.00896431 	0.624604 	0.35992 	-0.00283322 	5.69442e-21
0.00956749 	0.624537 	0.382022 	-0.00320233 	4.56481e-21
0.0101765 	0.624469 	0.404085 	-0.00359367 	-1.04509e-21
0.0107919 	0.624399 	0.426125 	-0.00400721 	1.30175e-23
0.0114142 	0.624327 	0.448158 	-0.00444293 	1.09317e-21
0.012044 	0.624251 	0.470198 	-0.00490077 	-1.64748e-20
0.0126819 	0.624173 	0.492264 	-0.0053807 	2.0841e-22
0.0133287 	0.624092 	0.514373 	-0.00588263 	4.29819e-20
0.0139851 	0.624007 	0.536104 	-0.00639588 	2.63316e-20
0.0145992 	0.623922 	0.557183 	-0.00691222 	-2.62385e-20
0.0152409 	0.623832 	0.578364 	-0.00744853 	-2.62669e-20
0.0159119 	0.623734 	0.600247 	-0.00802001 	2.58797e-20
0.016614 	0.623626 	0.622858 	-0.00862807 	2.58253e-20
0.0173491 	0.623508 	0.64622 	-0.00927382 	-2.81552e-20
0.018119 	0.623379 	0.670357 	-0.00995804 	-8.95947e-20
0.0189258 	0.623236 	0.69529 	-0.0106811 	-3.08912e-20
0.0197718 	0.623078 	0.721041 	-0.011443 	3.05315e-20
0.0206593 	0.622902 	0.747628 	-0.0122427 	6.95975e-20
0.0215907 	0.622707 	0.775065 	-0.013079 	1.4526e-19
0.0225687 	0.622489 	0.803362 	-0.0139491 	-7.49344e-20
0.023596 	0.622245 	0.832524 	-0.0148496 	-1.50802e-19
0.0246755 	0.621962 	0.86358 	-0.015808 	4.08309e-23
0.0259626 	0.621621 	0.897673 	-0.0168511 	4.50059e-20
0.0273361 	0.621221 	0.933958 	-0.017942 	1.47691e-19
0.0288025 	0.620761 	0.971506 	-0.0190381 	-5.23694e-20
0.030369 	0.620232 	1.01021 	-0.0201198 	-1.56225e-19
0.0320431 	0.619624 	1.0499 	-0.0211631 	1.14427e-19
0.033833 	0.618926 	1.09033 	-0.0221395 	-5.54604e-20
0.0357475 	0.618133 	1.131 	-0.0230125 	-6.19342e-20
0.0377646 	0.617237 	1.17126 	-0.0237434 	1.29315e-19
0.0399122 	0.616228 	1.2106 	-0.0242996 	-1.22835e-19
0.0422027 	0.615094 	1.24842 	-0.0246477 	-7.77035e-20
0.0446494 	0.613826 	1.28385 	-0.0247516 	7.96037e-20
0.0472662 	0.612418 	1.31573 	-0.0245763 	-4.83296e-20
0.0500679 	0.61087 	1.34269 	-0.0240894 	1.38737e-19
0.05307 	0.609183 	1.36301 	-0.023263 	1.60317e-19
0.0562894 	0.607371 	1.37468 	-0.0220761 	-9.43742e-20
0.0597436 	0.605454 	1.37537 	-0.0205173 	6.8293e-20
0.0634517 	0.603466 	1.36239 	-0.0185884 	4.03929e-20
0.0674339 	0.601454 	1.33275 	-0.0163067 	-1.22648e-19
0.0717118 	0.599481 	1.28318 	-0.0137087 	-4.74631e-20
0.0763087 	0.59762 	1.21012 	-0.010868 	-9.11149e-22
0.0812495 	0.595957 	1.10998 	-0.00791361 	-1.65762e-20
0.0865609 	0.59457 	0.979217 	-0.00504336 	-2.71218e-20
0.0922714 	0.59355 	0.830482 	-0.00277468 	5.86414e-20
0.0960782 	0.592972 	0.700886 	-0.00149372 	3.81611e-20
0.0992295 	0.592663 	0.5929 	-0.000802698 	-2.17643e-21
0.101838 	0.592479 	0.499086 	-0.000410659 	-5.08946e-21
