y,p,U_0,U_1,U_2
0,27.8868,0,0,0
5.0791e-05,27.7258,0.0968485,-2.74798e-06,4.87092e-22
0.000106156,27.7285,0.200214,-3.53193e-06,1.67539e-22
0.000166513,27.731,0.312809,-2.37718e-06,-1.42069e-21
0.000232318,27.7335,0.435462,-6.59934e-08,8.86502e-23
0.000304071,27.736,0.569076,3.33573e-06,1.06287e-21
0.000382317,27.7386,0.714633,8.13315e-06,-2.7635e-21
0.000467655,27.7413,0.873205,1.46765e-05,2.51843e-22
0.000560736,27.744,1.04596,2.33284e-05,3.01547e-21
0.000662276,27.7469,1.23416,3.44993e-05,2.99279e-22
0.000773056,27.7498,1.43919,4.86667e-05,-2.63848e-23
0.000893932,27.7528,1.66256,6.63827e-05,1.38776e-20
0.00102584,27.7559,1.90591,8.82799e-05,-1.28636e-21
0.00116981,27.7591,2.17101,0.000115079,-5.28649e-21
0.00132696,27.7624,2.45979,0.000147595,-2.8484e-20
0.00149852,27.7657,2.77437,0.000186745,1.01884e-20
0.00168585,27.7692,3.11701,0.000233551,-1.55228e-20
0.00189041,27.7727,3.49021,0.00028914,-4.08825e-20
0.00211383,27.7763,3.89663,0.000354748,2.09679e-20
0.00235788,27.7799,4.33919,0.000431704,2.93655e-20
0.00262452,27.7837,4.82104,0.000521426,6.68366e-20
0.00291587,27.7875,5.34558,0.000625393,-1.0103e-19
0.00323428,27.7913,5.91647,0.000745118,-2.92988e-20
0.00358232,27.7951,6.53767,0.000882106,1.52683e-20
0.00396282,27.799,7.21344,0.0010378,1.77067e-19
0.00437886,27.8028,7.94834,0.00121351,9.37375e-20
0.00483387,27.8066,8.74727,0.00141036,-1.03659e-19
0.00533158,27.8102,9.61545,0.00162931,2.1317e-19
0.00587609,27.8136,10.5584,0.00187116,3.38723e-20
0.00647192,27.8167,11.5821,0.00213552,-4.35307e-19
0.00712405,27.8192,12.6928,0.00241762,-2.9877e-19
0.00783792,27.8211,13.8968,0.00271062,2.00921e-19
0.00861955,27.8237,15.2011,0.00304943,1.55864e-19
0.00947556,27.8288,16.6127,0.00361159,-7.70961e-19
0.0104132,27.814,18.1228,0.00433552,8.92011e-19
0.0114014,27.7862,19.7122,0.00482969,1.31315e-18
0.0124582,27.7661,21.3808,0.00514662,-4.2513e-19
0.0135893,27.7431,23.1372,0.00551352,3.87837e-19
0.0148013,27.7156,24.985,0.00588863,-2.69592e-18
0.0161012,27.6829,26.927,0.00623751,-9.26273e-19
0.0174966,27.6436,28.9655,0.00655345,2.25302e-18
0.0189959,27.5958,31.1016,0.00684413,0
0.0206079,27.5372,33.3353,0.00712949,0
0.0223426,27.465,35.6641,0.00745184,-1.59212e-18
0.0242106,27.376,38.0829,0.00789374,-7.34587e-18
0.0262234,27.2657,40.5823,0.0085535,1.96332e-18
0.0283935,27.1265,43.1474,0.00933398,1.36406e-17
0.0307348,26.9512,45.7551,0.0097857,-9.43179e-18
0.0332619,26.7813,48.2672,0.0108378,-6.031e-18
0.0355637,26.6053,50.5199,0.0139842,9.34943e-18
0.0378721,26.3959,52.5284,0.018107,-5.36887e-18
0.0401872,26.1742,54.3399,0.0222385,8.57877e-18
0.0425097,25.9416,55.9448,0.0267233,1.22408e-17
0.0448399,25.6992,57.3346,0.0315753,-1.84443e-17
0.0471782,25.4492,58.5021,0.0367573,-1.71323e-17
0.0495252,25.1945,59.4411,0.0422721,1.60292e-17
0.0518813,24.9376,60.1459,0.0481602,1.62497e-17
0.0542472,24.6816,60.6114,0.0544896,-6.14166e-18
0.0566234,24.4291,60.8327,0.0613196,-6.04378e-18
0.0590104,24.1812,60.8053,0.0685965,-9.37275e-18
0.061409,23.9391,60.5249,0.0761236,6.82893e-18
0.0638199,23.7143,59.9859,0.0840698,8.16052e-18
0.0662793,23.5034,59.1784,0.0927225,1.17227e-18
0.068759,23.3,58.0964,0.101549,1.36653e-18
0.0712604,23.113,56.7387,0.110054,4.13664e-19
0.0737853,22.9422,55.1025,0.118083,1.23294e-18
0.0763353,22.7846,53.1862,0.124983,-2.62924e-17
0.0789125,22.639,50.9902,0.129909,-1.02834e-17
0.0815189,22.537,48.6318,0.133188,2.3287e-17
0.0836939,22.4712,46.3241,0.135593,6.53014e-19
0.0856987,22.4157,44.1067,0.136451,-5.71179e-18
0.0875598,22.3741,41.9317,0.135501,7.1121e-18
0.0893013,22.3419,39.7991,0.133134,-1.41763e-17
0.0909448,22.3158,37.703,0.129474,2.52691e-19
0.09251,22.2936,35.6339,0.124598,7.33145e-18
0.094015,22.274,33.5795,0.118565,5.03585e-18
0.0954762,22.2561,31.5255,0.11142,5.57968e-18
0.096909,22.2394,29.4562,0.1032,-5.53297e-18
0.0983277,22.2239,27.3544,0.0939552,-2.08212e-20
0.0997456,22.2096,25.2018,0.0837467,-2.84332e-19
0.101176,22.1963,22.9791,0.0726489,-6.83736e-21
0.10263,22.1861,20.6651,0.0608243,2.74916e-19
0.10412,22.1871,18.2371,0.0488973,3.53057e-18
0.105657,22.2058,15.6699,0.0383418,-1.48214e-18
0.107254,22.1987,13.1741,0.0292833,-4.98349e-18
0.108374,22.1853,11.0887,0.0212805,1.03982e-18
0.109314,22.2024,9.4056,0.0151579,-1.94587e-19
0.110102,22.2171,7.97151,0.010906,-2.35554e-19
0.110765,22.2272,6.75154,0.00788048,1.40657e-18
0.111322,22.2358,5.71501,0.00568507,3.58712e-19
0.111791,22.2435,4.83511,0.00409362,-4.61609e-19
0.112185,22.2505,4.08865,0.0029465,-3.25678e-19
0.112518,22.2565,3.45563,0.00212236,1.57458e-19
0.112798,22.2616,2.91888,0.00153094,1.35726e-19
0.113035,22.2659,2.46375,0.0011066,1.00014e-20
0.113235,22.2695,2.07777,0.000802009,-5.21924e-20
0.113404,22.2724,1.75033,0.000583168,1.41429e-21
0.113548,22.2747,1.47242,0.000425694,8.36018e-21
0.113669,22.2764,1.23644,0.00031214,1.56131e-21
0.113772,22.2777,1.03593,0.000230043,-1.11887e-20
0.113859,22.2785,0.865455,0.000170508,1.37459e-22
0.113933,22.279,0.720402,0.000127177,4.60732e-21
0.113996,22.2791,0.596886,9.55128e-05,1.34577e-21
0.11405,22.2789,0.491623,7.22677e-05,-1.53103e-21
0.114096,22.2784,0.401839,5.51191e-05,-9.23169e-22
0.114135,22.2778,0.32519,4.24026e-05,-4.91732e-24
0.114168,22.2769,0.259694,3.29177e-05,3.22778e-23
0.114197,22.2758,0.203678,2.57888e-05,1.05293e-22
0.114221,22.2746,0.155725,2.04021e-05,-7.45011e-23
0.114242,22.2733,0.114634,1.64185e-05,-2.54517e-23
0.11426,22.272,0.0793917,1.36274e-05,8.56676e-23
0.114275,22.2693,0.0491359,1.11753e-05,-8.14307e-23
0.114289,22.2632,0.0231367,6.83012e-06,-4.15352e-24
0.1143,22.2338,0,0,0
