/*--------------------------------*- C++ -*----------------------------------*\
| =========                 |                                                 |
| \\      /  F ield         | OpenFOAM: The Open Source CFD Toolbox           |
|  \\    /   O peration     | Version:  2506                                  |
|   \\  /    A nd           | Website:  www.openfoam.com                      |
|    \\/     M anipulation  |                                                 |
\*---------------------------------------------------------------------------*/
FoamFile
{
    version     2.0;
    format      ascii;
    arch        "LSB;label=32;scalar=64";
    class       volScalarField;
    location    "2000";
    object      p;
}
// * * * * * * * * * * * * * * * * * * * * * * * * * * * * * * * * * * * * * //

dimensions      [0 2 -2 0 0 0 0];

internalField   nonuniform List<scalar> 
20540
(
0.233033
0.244458
0.233033
0.244452
0.233033
0.244444
0.233033
0.244434
0.233032
0.244422
0.233032
0.244408
0.233032
0.24439
0.233031
0.244368
0.23303
0.24434
0.233028
0.244305
0.233024
0.244262
0.23302
0.244208
0.233013
0.24414
0.233003
0.244056
0.232989
0.243951
0.23297
0.243822
0.232945
0.243662
0.232913
0.243467
0.232874
0.243231
0.232828
0.242949
0.232775
0.242618
0.232719
0.242237
0.232658
0.241806
0.232592
0.241321
0.232518
0.240775
0.232434
0.240157
0.232341
0.239463
0.232241
0.238712
0.232138
0.237946
0.232042
0.23723
0.231974
0.236731
0.23194
0.236491
0.23194
0.236497
0.231972
0.236747
0.232038
0.237249
0.23213
0.237947
0.232228
0.238694
0.232324
0.239428
0.232415
0.240112
0.232497
0.240726
0.23257
0.241269
0.232635
0.241753
0.232694
0.242186
0.23275
0.242571
0.232802
0.242909
0.23285
0.2432
0.23289
0.243447
0.232924
0.243653
0.232952
0.243824
0.232973
0.243964
0.232988
0.244078
0.233
0.244171
0.233008
0.244246
0.233014
0.244306
0.233018
0.244355
0.233021
0.244394
0.233022
0.244426
0.233023
0.244451
0.233024
0.244472
0.233024
0.244489
0.233025
0.244503
0.233025
0.244514
0.233025
0.244523
0.233025
0.244531
0.233025
0.244537
0.221703
0.163281
0.142655
0.130717
0.118999
0.107671
0.0976945
0.0887995
0.0806438
0.0731174
0.0661563
0.0596879
0.0536511
0.0479992
0.0426935
0.0377013
0.0329943
0.0285482
0.0243421
0.0203573
0.0165775
0.0129881
0.00957612
0.00632973
0.00323829
0.0002921
-0.00251771
-0.0051993
-0.0077602
-0.0102074
-0.0125473
-0.0147862
-0.0169296
-0.0189831
-0.0209516
-0.0228402
-0.0246534
-0.0263958
-0.0280716
-0.029685
-0.03124
-0.0327405
-0.0341904
-0.0355933
-0.0369528
-0.0382724
-0.0395554
-0.0408052
-0.042025
-0.0432177
-0.0443865
-0.0455342
-0.0466636
-0.0477773
-0.0488778
-0.0499678
-0.0510494
-0.0521253
-0.053197
-0.0542676
-0.0553381
-0.0564121
-0.0574895
-0.0583963
-0.0591095
-0.0598071
-0.060491
-0.0611613
-0.0618183
-0.0624625
-0.0630939
-0.0637133
-0.0643205
-0.0649166
-0.065501
-0.0660759
-0.0666391
-0.0671956
-0.0677395
-0.0682829
-0.0688084
-0.0693508
-0.0698526
-0.0704312
-0.07087
-0.0716298
-0.0717648
-0.0740687
0.2217
0.163285
0.142656
0.130718
0.119
0.107672
0.0976947
0.0887997
0.0806439
0.0731175
0.0661564
0.059688
0.0536512
0.0479992
0.0426936
0.0377014
0.0329943
0.0285483
0.0243421
0.0203573
0.0165775
0.0129882
0.00957616
0.00632977
0.00323833
0.000292137
-0.00251768
-0.00519927
-0.00776016
-0.0102073
-0.0125473
-0.0147862
-0.0169296
-0.0189831
-0.0209516
-0.0228402
-0.0246534
-0.0263958
-0.0280716
-0.0296849
-0.03124
-0.0327405
-0.0341904
-0.0355933
-0.0369528
-0.0382724
-0.0395554
-0.0408052
-0.042025
-0.0432178
-0.0443865
-0.0455343
-0.0466636
-0.0477773
-0.0488779
-0.0499679
-0.0510495
-0.0521253
-0.0531971
-0.0542677
-0.0553382
-0.0564122
-0.0574896
-0.0583965
-0.0591097
-0.0598073
-0.0604912
-0.0611615
-0.0618185
-0.0624627
-0.0630942
-0.0637136
-0.0643208
-0.064917
-0.0655014
-0.0660763
-0.0666396
-0.0671962
-0.0677401
-0.0682836
-0.0688091
-0.0693517
-0.0698536
-0.0704327
-0.0708714
-0.0716344
-0.0717723
-0.0740477
0.221696
0.16329
0.142658
0.130718
0.119
0.107672
0.097695
0.0887999
0.0806441
0.0731177
0.0661565
0.0596881
0.0536513
0.0479993
0.0426937
0.0377015
0.0329944
0.0285484
0.0243422
0.0203574
0.0165776
0.0129882
0.00957622
0.00632982
0.00323838
0.000292188
-0.00251763
-0.00519922
-0.00776012
-0.0102073
-0.0125473
-0.0147861
-0.0169296
-0.018983
-0.0209516
-0.0228401
-0.0246534
-0.0263957
-0.0280715
-0.0296849
-0.0312399
-0.0327405
-0.0341904
-0.0355933
-0.0369528
-0.0382724
-0.0395554
-0.0408052
-0.042025
-0.0432178
-0.0443866
-0.0455343
-0.0466636
-0.0477774
-0.0488779
-0.049968
-0.0510496
-0.0521254
-0.0531972
-0.0542679
-0.0553384
-0.0564124
-0.0574899
-0.0583968
-0.0591099
-0.0598076
-0.0604915
-0.0611619
-0.0618189
-0.0624631
-0.0630946
-0.0637141
-0.0643213
-0.0649175
-0.0655019
-0.0660769
-0.0666402
-0.0671969
-0.0677408
-0.0682845
-0.0688101
-0.0693529
-0.0698549
-0.0704347
-0.0708734
-0.0716404
-0.071782
-0.0740183
0.221692
0.163296
0.142659
0.130719
0.119
0.107672
0.0976953
0.0888001
0.0806443
0.0731179
0.0661567
0.0596882
0.0536514
0.0479995
0.0426938
0.0377016
0.0329945
0.0285484
0.0243423
0.0203575
0.0165777
0.0129883
0.00957628
0.00632989
0.00323844
0.000292248
-0.00251757
-0.00519916
-0.00776006
-0.0102072
-0.0125472
-0.0147861
-0.0169295
-0.018983
-0.0209515
-0.0228401
-0.0246533
-0.0263957
-0.0280715
-0.0296849
-0.0312399
-0.0327405
-0.0341904
-0.0355933
-0.0369528
-0.0382723
-0.0395554
-0.0408052
-0.042025
-0.0432178
-0.0443866
-0.0455343
-0.0466637
-0.0477774
-0.048878
-0.0499681
-0.0510497
-0.0521256
-0.0531974
-0.0542681
-0.0553385
-0.0564126
-0.0574901
-0.058397
-0.0591102
-0.0598079
-0.0604919
-0.0611622
-0.0618193
-0.0624636
-0.0630951
-0.0637146
-0.0643218
-0.0649181
-0.0655026
-0.0660776
-0.066641
-0.0671977
-0.0677417
-0.0682855
-0.0688112
-0.0693543
-0.0698564
-0.0704371
-0.0708757
-0.0716472
-0.0717933
-0.0739839
0.221685
0.163303
0.142661
0.13072
0.119001
0.107673
0.0976956
0.0888004
0.0806446
0.0731181
0.0661569
0.0596884
0.0536516
0.0479996
0.0426939
0.0377017
0.0329946
0.0285485
0.0243424
0.0203575
0.0165777
0.0129884
0.00957637
0.00632997
0.00323852
0.00029232
-0.0025175
-0.0051991
-0.00776
-0.0102072
-0.0125472
-0.014786
-0.0169295
-0.0189829
-0.0209515
-0.0228401
-0.0246533
-0.0263956
-0.0280714
-0.0296848
-0.0312399
-0.0327404
-0.0341903
-0.0355932
-0.0369527
-0.0382723
-0.0395554
-0.0408052
-0.042025
-0.0432178
-0.0443866
-0.0455344
-0.0466637
-0.0477775
-0.0488781
-0.0499682
-0.0510498
-0.0521257
-0.0531975
-0.0542682
-0.0553388
-0.0564129
-0.0574904
-0.0583974
-0.0591106
-0.0598083
-0.0604923
-0.0611627
-0.0618198
-0.0624641
-0.0630956
-0.0637152
-0.0643225
-0.0649188
-0.0655033
-0.0660784
-0.0666418
-0.0671987
-0.0677428
-0.0682867
-0.0688126
-0.069356
-0.0698582
-0.0704398
-0.0708785
-0.0716545
-0.0718064
-0.0739439
0.221677
0.163311
0.142664
0.130721
0.119002
0.107673
0.0976961
0.0888008
0.0806449
0.0731183
0.0661571
0.0596886
0.0536518
0.0479998
0.0426941
0.0377018
0.0329948
0.0285487
0.0243425
0.0203577
0.0165779
0.0129885
0.00957646
0.00633006
0.00323861
0.000292406
-0.00251742
-0.00519902
-0.00775992
-0.0102071
-0.0125471
-0.0147859
-0.0169294
-0.0189829
-0.0209514
-0.02284
-0.0246532
-0.0263956
-0.0280714
-0.0296848
-0.0312398
-0.0327404
-0.0341903
-0.0355932
-0.0369527
-0.0382723
-0.0395554
-0.0408052
-0.042025
-0.0432178
-0.0443867
-0.0455344
-0.0466638
-0.0477776
-0.0488782
-0.0499683
-0.05105
-0.0521259
-0.0531977
-0.0542685
-0.055339
-0.0564132
-0.0574907
-0.0583977
-0.059111
-0.0598087
-0.0604928
-0.0611632
-0.0618203
-0.0624647
-0.0630963
-0.0637159
-0.0643232
-0.0649196
-0.0655042
-0.0660794
-0.0666429
-0.0671999
-0.0677441
-0.0682882
-0.0688142
-0.0693579
-0.0698603
-0.0704429
-0.0708819
-0.0716623
-0.0718214
-0.0738972
0.221667
0.16332
0.142667
0.130723
0.119003
0.107674
0.0976966
0.0888012
0.0806452
0.0731186
0.0661574
0.0596889
0.053652
0.048
0.0426943
0.037702
0.0329949
0.0285488
0.0243426
0.0203578
0.016578
0.0129886
0.00957658
0.00633017
0.00323872
0.00029251
-0.00251732
-0.00519892
-0.00775983
-0.010207
-0.012547
-0.0147859
-0.0169293
-0.0189828
-0.0209513
-0.0228399
-0.0246532
-0.0263955
-0.0280713
-0.0296847
-0.0312398
-0.0327404
-0.0341903
-0.0355932
-0.0369527
-0.0382723
-0.0395554
-0.0408052
-0.042025
-0.0432179
-0.0443867
-0.0455345
-0.0466639
-0.0477777
-0.0488783
-0.0499684
-0.0510501
-0.0521261
-0.053198
-0.0542688
-0.0553394
-0.0564135
-0.0574912
-0.0583982
-0.0591115
-0.0598093
-0.0604934
-0.0611638
-0.061821
-0.0624654
-0.0630971
-0.0637167
-0.0643241
-0.0649206
-0.0655053
-0.0660806
-0.0666441
-0.0672012
-0.0677456
-0.0682898
-0.068816
-0.0693601
-0.0698628
-0.0704465
-0.0708861
-0.0716705
-0.0718383
-0.0738429
0.221653
0.163331
0.14267
0.130724
0.119004
0.107675
0.0976972
0.0888017
0.0806457
0.073119
0.0661577
0.0596892
0.0536523
0.0480002
0.0426945
0.0377022
0.0329951
0.028549
0.0243428
0.020358
0.0165781
0.0129887
0.00957672
0.00633031
0.00323885
0.000292636
-0.0025172
-0.0051988
-0.00775971
-0.0102069
-0.0125469
-0.0147858
-0.0169292
-0.0189827
-0.0209513
-0.0228398
-0.0246531
-0.0263954
-0.0280713
-0.0296847
-0.0312397
-0.0327403
-0.0341902
-0.0355931
-0.0369527
-0.0382723
-0.0395554
-0.0408052
-0.042025
-0.0432179
-0.0443868
-0.0455345
-0.046664
-0.0477778
-0.0488785
-0.0499686
-0.0510503
-0.0521263
-0.0531983
-0.0542691
-0.0553397
-0.056414
-0.0574916
-0.0583987
-0.0591121
-0.0598099
-0.060494
-0.0611646
-0.0618218
-0.0624663
-0.063098
-0.0637177
-0.0643252
-0.0649218
-0.0655065
-0.0660819
-0.0666456
-0.0672028
-0.0677473
-0.0682918
-0.0688182
-0.0693627
-0.0698658
-0.0704504
-0.0708912
-0.0716785
-0.0718567
-0.0737796
0.221635
0.163344
0.142674
0.130726
0.119005
0.107676
0.097698
0.0888024
0.0806462
0.0731195
0.0661581
0.0596895
0.0536526
0.0480005
0.0426948
0.0377025
0.0329954
0.0285492
0.024343
0.0203582
0.0165783
0.0129889
0.00957689
0.00633047
0.003239
0.000292787
-0.00251705
-0.00519866
-0.00775958
-0.0102068
-0.0125468
-0.0147856
-0.0169291
-0.0189826
-0.0209511
-0.0228397
-0.024653
-0.0263953
-0.0280712
-0.0296846
-0.0312396
-0.0327402
-0.0341901
-0.0355931
-0.0369526
-0.0382722
-0.0395554
-0.0408052
-0.042025
-0.0432179
-0.0443868
-0.0455346
-0.0466641
-0.0477779
-0.0488786
-0.0499688
-0.0510506
-0.0521266
-0.0531986
-0.0542695
-0.0553402
-0.0564145
-0.0574922
-0.0583994
-0.0591127
-0.0598107
-0.0604948
-0.0611654
-0.0618227
-0.0624673
-0.0630991
-0.0637189
-0.0643265
-0.0649231
-0.065508
-0.0660835
-0.0666473
-0.0672047
-0.0677494
-0.0682941
-0.0688208
-0.0693657
-0.0698693
-0.0704546
-0.0708972
-0.0716856
-0.0718757
-0.0737055
0.221611
0.163358
0.142679
0.130729
0.119006
0.107677
0.0976989
0.0888031
0.0806468
0.07312
0.0661586
0.05969
0.053653
0.0480009
0.0426951
0.0377028
0.0329956
0.0285495
0.0243433
0.0203584
0.0165786
0.0129891
0.0095771
0.00633067
0.00323919
0.000292969
-0.00251687
-0.00519849
-0.00775941
-0.0102066
-0.0125466
-0.0147855
-0.016929
-0.0189824
-0.020951
-0.0228396
-0.0246528
-0.0263952
-0.0280711
-0.0296845
-0.0312395
-0.0327401
-0.0341901
-0.035593
-0.0369526
-0.0382722
-0.0395553
-0.0408052
-0.0420251
-0.043218
-0.0443869
-0.0455347
-0.0466642
-0.0477781
-0.0488788
-0.049969
-0.0510509
-0.052127
-0.053199
-0.0542699
-0.0553407
-0.056415
-0.0574929
-0.0584001
-0.0591135
-0.0598115
-0.0604958
-0.0611664
-0.0618238
-0.0624684
-0.0631003
-0.0637202
-0.0643279
-0.0649247
-0.0655096
-0.0660853
-0.0666493
-0.0672068
-0.0677517
-0.0682967
-0.0688237
-0.0693689
-0.0698733
-0.070459
-0.0709042
-0.0716906
-0.0718936
-0.0736174
0.22158
0.163376
0.142684
0.130732
0.119008
0.107678
0.0977
0.088804
0.0806476
0.0731207
0.0661592
0.0596905
0.0536535
0.0480013
0.0426955
0.0377031
0.032996
0.0285498
0.0243436
0.0203587
0.0165788
0.0129894
0.00957735
0.00633091
0.00323942
0.000293188
-0.00251666
-0.00519829
-0.00775922
-0.0102064
-0.0125464
-0.0147853
-0.0169288
-0.0189823
-0.0209509
-0.0228394
-0.0246527
-0.0263951
-0.0280709
-0.0296844
-0.0312394
-0.03274
-0.03419
-0.0355929
-0.0369525
-0.0382722
-0.0395553
-0.0408052
-0.0420251
-0.043218
-0.0443869
-0.0455348
-0.0466643
-0.0477783
-0.048879
-0.0499693
-0.0510512
-0.0521273
-0.0531994
-0.0542704
-0.0553413
-0.0564157
-0.0574936
-0.058401
-0.0591145
-0.0598125
-0.0604968
-0.0611676
-0.0618251
-0.0624698
-0.0631017
-0.0637218
-0.0643296
-0.0649264
-0.0655116
-0.0660873
-0.0666515
-0.0672092
-0.0677544
-0.0682996
-0.068827
-0.0693725
-0.0698778
-0.0704632
-0.0709119
-0.0716919
-0.0719078
-0.0735109
0.221538
0.163397
0.142691
0.130735
0.11901
0.10768
0.0977013
0.0888051
0.0806485
0.0731215
0.0661599
0.0596911
0.053654
0.0480018
0.042696
0.0377036
0.0329964
0.0285502
0.0243439
0.020359
0.0165791
0.0129897
0.00957764
0.00633119
0.00323969
0.00029345
-0.00251641
-0.00519805
-0.00775898
-0.0102062
-0.0125462
-0.0147851
-0.0169286
-0.0189821
-0.0209507
-0.0228393
-0.0246525
-0.0263949
-0.0280708
-0.0296842
-0.0312393
-0.0327399
-0.0341899
-0.0355928
-0.0369524
-0.0382721
-0.0395553
-0.0408052
-0.0420251
-0.043218
-0.044387
-0.0455349
-0.0466645
-0.0477785
-0.0488793
-0.0499696
-0.0510515
-0.0521278
-0.0531999
-0.054271
-0.0553419
-0.0564165
-0.0574945
-0.0584019
-0.0591155
-0.0598136
-0.0604981
-0.0611689
-0.0618265
-0.0624713
-0.0631034
-0.0637235
-0.0643314
-0.0649284
-0.0655137
-0.0660896
-0.066654
-0.0672119
-0.0677573
-0.0683026
-0.0688305
-0.069376
-0.0698825
-0.0704667
-0.0709195
-0.071687
-0.0719143
-0.0733798
0.221484
0.163422
0.142699
0.13074
0.119013
0.107682
0.0977029
0.0888064
0.0806496
0.0731224
0.0661607
0.0596919
0.0536547
0.0480024
0.0426966
0.0377041
0.0329969
0.0285507
0.0243444
0.0203594
0.0165795
0.0129901
0.009578
0.00633153
0.00324002
0.000293764
-0.00251611
-0.00519775
-0.0077587
-0.0102059
-0.0125459
-0.0147848
-0.0169283
-0.0189818
-0.0209504
-0.022839
-0.0246523
-0.0263947
-0.0280706
-0.029684
-0.0312391
-0.0327397
-0.0341897
-0.0355927
-0.0369523
-0.038272
-0.0395552
-0.0408052
-0.0420251
-0.0432181
-0.0443871
-0.045535
-0.0466647
-0.0477787
-0.0488796
-0.0499699
-0.0510519
-0.0521282
-0.0532005
-0.0542716
-0.0553427
-0.0564173
-0.0574955
-0.058403
-0.0591167
-0.0598149
-0.0604994
-0.0611703
-0.061828
-0.0624729
-0.0631051
-0.0637254
-0.0643334
-0.0649306
-0.065516
-0.0660921
-0.0666566
-0.0672147
-0.0677603
-0.0683058
-0.0688341
-0.0693793
-0.069887
-0.0704684
-0.0709255
-0.0716728
-0.0719072
-0.0732174
0.221413
0.163454
0.142708
0.130745
0.119016
0.107684
0.0977048
0.088808
0.0806509
0.0731236
0.0661617
0.0596928
0.0536555
0.0480032
0.0426972
0.0377047
0.0329975
0.0285512
0.0243449
0.0203599
0.01658
0.0129905
0.00957842
0.00633194
0.00324041
0.00029414
-0.00251575
-0.0051974
-0.00775836
-0.0102056
-0.0125456
-0.0147845
-0.016928
-0.0189815
-0.0209501
-0.0228388
-0.024652
-0.0263945
-0.0280703
-0.0296838
-0.0312389
-0.0327396
-0.0341895
-0.0355926
-0.0369522
-0.0382719
-0.0395551
-0.0408051
-0.0420251
-0.0432181
-0.0443871
-0.0455351
-0.0466648
-0.0477789
-0.0488798
-0.0499703
-0.0510523
-0.0521287
-0.053201
-0.0542723
-0.0553434
-0.0564182
-0.0574965
-0.0584041
-0.0591179
-0.0598162
-0.0605008
-0.0611718
-0.0618296
-0.0624747
-0.063107
-0.0637273
-0.0643355
-0.0649328
-0.0655184
-0.0660946
-0.0666592
-0.0672174
-0.0677632
-0.0683086
-0.0688373
-0.0693817
-0.0698903
-0.070467
-0.0709269
-0.0716452
-0.0718782
-0.0730194
0.221323
0.163495
0.142719
0.130751
0.11902
0.107687
0.097707
0.0888098
0.0806525
0.0731249
0.0661629
0.0596938
0.0536565
0.0480041
0.0426981
0.0377055
0.0329982
0.0285519
0.0243455
0.0203605
0.0165806
0.0129911
0.00957893
0.00633242
0.00324087
0.000294588
-0.00251531
-0.00519698
-0.00775796
-0.0102052
-0.0125452
-0.0147842
-0.0169277
-0.0189812
-0.0209498
-0.0228384
-0.0246517
-0.0263942
-0.02807
-0.0296835
-0.0312386
-0.0327393
-0.0341893
-0.0355924
-0.036952
-0.0382718
-0.039555
-0.040805
-0.042025
-0.0432181
-0.0443872
-0.0455352
-0.0466649
-0.0477791
-0.0488801
-0.0499706
-0.0510527
-0.0521292
-0.0532016
-0.054273
-0.0553442
-0.0564191
-0.0574975
-0.0584052
-0.0591191
-0.0598175
-0.0605022
-0.0611733
-0.0618312
-0.0624763
-0.0631088
-0.0637292
-0.0643375
-0.0649349
-0.0655205
-0.0660968
-0.0666615
-0.0672196
-0.0677655
-0.0683105
-0.0688391
-0.0693819
-0.0698903
-0.0704598
-0.0709187
-0.0715986
-0.071818
-0.0727834
0.22121
0.16355
0.142731
0.130759
0.119025
0.10769
0.0977097
0.0888121
0.0806544
0.0731266
0.0661644
0.0596951
0.0536576
0.0480051
0.042699
0.0377064
0.032999
0.0285527
0.0243462
0.0203612
0.0165812
0.0129917
0.00957953
0.006333
0.00324143
0.000295122
-0.0025148
-0.00519649
-0.00775747
-0.0102047
-0.0125448
-0.0147837
-0.0169272
-0.0189808
-0.0209494
-0.022838
-0.0246514
-0.0263938
-0.0280697
-0.0296832
-0.0312383
-0.032739
-0.034189
-0.0355921
-0.0369518
-0.0382715
-0.0395548
-0.0408049
-0.0420249
-0.043218
-0.0443871
-0.0455352
-0.046665
-0.0477792
-0.0488803
-0.0499709
-0.0510531
-0.0521296
-0.0532021
-0.0542735
-0.0553449
-0.0564198
-0.0574983
-0.0584062
-0.0591202
-0.0598186
-0.0605034
-0.0611746
-0.0618325
-0.0624777
-0.0631102
-0.0637307
-0.064339
-0.0649364
-0.065522
-0.0660981
-0.0666628
-0.0672206
-0.0677661
-0.0683102
-0.0688379
-0.0693779
-0.069884
-0.0704427
-0.0708937
-0.0715261
-0.0717165
-0.0725109
0.221072
0.163626
0.142746
0.130769
0.11903
0.107694
0.0977129
0.0888148
0.0806566
0.0731285
0.0661661
0.0596966
0.053659
0.0480064
0.0427002
0.0377075
0.033
0.0285536
0.0243471
0.020362
0.016582
0.0129924
0.00958024
0.00633368
0.00324209
0.000295756
-0.00251419
-0.0051959
-0.0077569
-0.0102042
-0.0125443
-0.0147832
-0.0169267
-0.0189803
-0.0209489
-0.0228376
-0.0246509
-0.0263934
-0.0280693
-0.0296828
-0.0312379
-0.0327386
-0.0341887
-0.0355917
-0.0369514
-0.0382712
-0.0395545
-0.0408046
-0.0420247
-0.0432178
-0.044387
-0.0455351
-0.0466649
-0.0477792
-0.0488803
-0.0499709
-0.0510532
-0.0521298
-0.0532023
-0.0542738
-0.0553452
-0.0564203
-0.0574988
-0.0584067
-0.0591207
-0.0598192
-0.060504
-0.0611752
-0.0618331
-0.0624783
-0.0631107
-0.0637311
-0.0643393
-0.0649365
-0.0655218
-0.0660976
-0.0666617
-0.0672187
-0.0677632
-0.0683055
-0.0688308
-0.0693661
-0.0698659
-0.0704093
-0.0708423
-0.0714196
-0.0715648
-0.0722092
0.220911
0.163732
0.142764
0.130781
0.119038
0.107699
0.0977167
0.088818
0.0806594
0.0731308
0.0661681
0.0596985
0.0536607
0.0480079
0.0427016
0.0377087
0.0330012
0.0285547
0.0243481
0.020363
0.0165829
0.0129933
0.00958109
0.0063345
0.00324287
0.000296508
-0.00251346
-0.00519519
-0.00775622
-0.0102035
-0.0125436
-0.0147826
-0.0169261
-0.0189797
-0.0209483
-0.022837
-0.0246503
-0.0263928
-0.0280687
-0.0296823
-0.0312374
-0.0327381
-0.0341882
-0.0355913
-0.036951
-0.0382708
-0.0395541
-0.0408042
-0.0420243
-0.0432174
-0.0443866
-0.0455348
-0.0466646
-0.0477788
-0.04888
-0.0499706
-0.0510529
-0.0521295
-0.053202
-0.0542735
-0.0553449
-0.0564199
-0.0574984
-0.0584063
-0.0591203
-0.0598187
-0.0605033
-0.0611744
-0.0618321
-0.0624771
-0.0631092
-0.0637293
-0.0643371
-0.0649338
-0.0655184
-0.0660933
-0.0666562
-0.0672116
-0.0677537
-0.0682927
-0.068813
-0.0693404
-0.0698282
-0.0703502
-0.0707524
-0.0712698
-0.0713573
-0.0718869
0.220733
0.163881
0.142788
0.130797
0.119048
0.107705
0.0977213
0.0888219
0.0806627
0.0731336
0.0661706
0.0597007
0.0536626
0.0480097
0.0427032
0.0377102
0.0330026
0.028556
0.0243494
0.0203642
0.0165841
0.0129944
0.0095821
0.00633546
0.0032438
0.000297401
-0.0025126
-0.00519436
-0.00775541
-0.0102027
-0.0125429
-0.0147818
-0.0169254
-0.018979
-0.0209477
-0.0228363
-0.0246497
-0.0263921
-0.0280681
-0.0296816
-0.0312368
-0.0327375
-0.0341875
-0.0355906
-0.0369503
-0.0382701
-0.0395534
-0.0408035
-0.0420235
-0.0432167
-0.0443858
-0.0455339
-0.0466637
-0.0477779
-0.048879
-0.0499696
-0.0510518
-0.0521283
-0.0532007
-0.0542721
-0.0553433
-0.0564181
-0.0574963
-0.0584039
-0.0591177
-0.0598159
-0.0605
-0.0611707
-0.0618281
-0.0624725
-0.063104
-0.0637234
-0.0643302
-0.0649257
-0.0655089
-0.066082
-0.0666424
-0.0671946
-0.0677323
-0.0682653
-0.0687765
-0.0692914
-0.0697592
-0.0702528
-0.070611
-0.0710678
-0.0710908
-0.0715485
0.220547
0.164086
0.14282
0.13082
0.119062
0.107713
0.0977271
0.0888269
0.0806668
0.0731371
0.0661736
0.0597033
0.053665
0.0480118
0.0427052
0.0377121
0.0330043
0.0285576
0.0243509
0.0203656
0.0165854
0.0129956
0.00958331
0.00633661
0.0032449
0.000298465
-0.00251157
-0.00519337
-0.00775445
-0.0102018
-0.0125419
-0.0147809
-0.0169245
-0.0189781
-0.0209468
-0.0228355
-0.0246488
-0.0263913
-0.0280672
-0.0296807
-0.0312359
-0.0327366
-0.0341866
-0.0355896
-0.0369493
-0.038269
-0.0395522
-0.0408022
-0.0420222
-0.0432152
-0.0443843
-0.0455322
-0.0466619
-0.0477759
-0.0488768
-0.0499671
-0.0510491
-0.0521253
-0.0531974
-0.0542683
-0.0553391
-0.0564134
-0.0574909
-0.0583978
-0.0591113
-0.0598088
-0.0604921
-0.0611619
-0.0618183
-0.0624616
-0.0630918
-0.0637096
-0.0643146
-0.0649078
-0.0654882
-0.0660579
-0.0666138
-0.0671603
-0.06769
-0.0682131
-0.0687092
-0.0692054
-0.0696432
-0.0701009
-0.0704038
-0.0708051
-0.0707634
-0.0711904
0.22037
0.164361
0.142864
0.130852
0.119082
0.107723
0.0977344
0.0888332
0.0806721
0.0731415
0.0661773
0.0597066
0.053668
0.0480145
0.0427076
0.0377143
0.0330064
0.0285595
0.0243527
0.0203673
0.016587
0.0129972
0.00958476
0.006338
0.00324623
0.000299746
-0.00251034
-0.00519217
-0.00775329
-0.0102007
-0.0125408
-0.0147798
-0.0169234
-0.018977
-0.0209457
-0.0228344
-0.0246477
-0.0263902
-0.0280661
-0.0296795
-0.0312346
-0.0327353
-0.0341852
-0.0355881
-0.0369476
-0.0382672
-0.0395503
-0.0408001
-0.0420198
-0.0432126
-0.0443814
-0.045529
-0.0466583
-0.0477719
-0.0488723
-0.0499621
-0.0510435
-0.052119
-0.0531904
-0.0542605
-0.0553303
-0.0564034
-0.0574795
-0.0583852
-0.0590976
-0.0597938
-0.0604755
-0.0611436
-0.0617981
-0.0624392
-0.0630669
-0.0636818
-0.0642833
-0.0648724
-0.0654477
-0.0660112
-0.0665592
-0.0670962
-0.0676128
-0.0681201
-0.0685932
-0.0690626
-0.0694601
-0.069876
-0.0701167
-0.0704726
-0.0703709
-0.0707991
0.220212
0.164715
0.142925
0.130899
0.119111
0.107738
0.0977442
0.0888418
0.0806792
0.0731472
0.0661822
0.059711
0.0536718
0.0480179
0.0427107
0.0377171
0.033009
0.0285619
0.0243549
0.0203694
0.016589
0.0129991
0.00958655
0.00633972
0.00324787
0.000301324
-0.00250881
-0.0051907
-0.00775185
-0.0101993
-0.0125395
-0.0147785
-0.0169221
-0.0189757
-0.0209444
-0.022833
-0.0246463
-0.0263887
-0.0280645
-0.0296778
-0.0312328
-0.0327333
-0.034183
-0.0355857
-0.036945
-0.0382643
-0.039547
-0.0407964
-0.0420157
-0.0432079
-0.0443761
-0.0455231
-0.0466516
-0.0477644
-0.0488638
-0.0499526
-0.0510328
-0.052107
-0.0531769
-0.0542453
-0.0553132
-0.056384
-0.0574575
-0.0583606
-0.0590711
-0.0597647
-0.0604435
-0.0611084
-0.0617594
-0.0623966
-0.0630197
-0.0636293
-0.0642246
-0.0648065
-0.065373
-0.0659262
-0.0664611
-0.0669826
-0.0674788
-0.0679625
-0.0684032
-0.0688375
-0.0691856
-0.0695569
-0.0697341
-0.0700569
-0.069903
-0.0703511
0.220078
0.165149
0.143004
0.130965
0.119154
0.107758
0.097758
0.0888539
0.0806891
0.0731551
0.0661889
0.0597168
0.0536769
0.0480225
0.0427148
0.0377209
0.0330124
0.0285651
0.0243579
0.0203721
0.0165916
0.0130015
0.00958885
0.00634191
0.00324997
0.000303335
-0.00250687
-0.00518882
-0.00775002
-0.0101975
-0.0125377
-0.0147767
-0.0169203
-0.0189739
-0.0209425
-0.0228311
-0.0246443
-0.0263865
-0.0280621
-0.0296753
-0.03123
-0.0327302
-0.0341795
-0.0355818
-0.0369406
-0.0382593
-0.0395413
-0.0407899
-0.0420083
-0.0431995
-0.0443666
-0.0455123
-0.0466394
-0.0477506
-0.0488483
-0.0499351
-0.051013
-0.0520847
-0.0531518
-0.054217
-0.0552813
-0.0563481
-0.0574167
-0.0583152
-0.0590218
-0.059711
-0.0603845
-0.0610438
-0.0616886
-0.0623188
-0.0629339
-0.0635345
-0.0641192
-0.064689
-0.0652412
-0.0657776
-0.0662921
-0.0667901
-0.0672567
-0.0677075
-0.0681062
-0.068498
-0.0687911
-0.069118
-0.0692361
-0.0695359
-0.0693406
-0.0698117
0.219958
0.165656
0.1431
0.131052
0.119215
0.107788
0.0977775
0.0888711
0.0807033
0.0731664
0.0661984
0.059725
0.0536841
0.0480288
0.0427205
0.037726
0.0330171
0.0285694
0.0243619
0.0203759
0.016595
0.0130047
0.00959194
0.00634484
0.00325277
0.000306016
-0.00250429
-0.00518631
-0.00774757
-0.0101951
-0.0125353
-0.0147743
-0.0169179
-0.0189714
-0.0209399
-0.0228283
-0.0246413
-0.0263833
-0.0280586
-0.0296714
-0.0312256
-0.0327252
-0.0341739
-0.0355753
-0.0369331
-0.0382508
-0.0395315
-0.0407787
-0.0419955
-0.0431849
-0.0443499
-0.0454933
-0.0466178
-0.0477261
-0.0488206
-0.0499038
-0.0509777
-0.0520449
-0.0531069
-0.0541665
-0.0552244
-0.0562838
-0.057344
-0.0582343
-0.0589339
-0.0596152
-0.0602799
-0.0609296
-0.0615637
-0.0621821
-0.0627839
-0.0633695
-0.0639371
-0.0644875
-0.0650172
-0.0655281
-0.0660125
-0.066477
-0.0669039
-0.0673124
-0.0676611
-0.0680049
-0.0682419
-0.068526
-0.0685938
-0.068874
-0.068652
-0.0691325
0.21983
0.16623
0.143208
0.131159
0.119295
0.107828
0.0978038
0.0888949
0.0807231
0.0731823
0.0662118
0.0597367
0.0536944
0.0480379
0.0427286
0.0377333
0.0330237
0.0285755
0.0243675
0.0203811
0.0165999
0.0130093
0.00959626
0.00634893
0.00325667
0.000309752
-0.00250069
-0.00518282
-0.00774416
-0.0101917
-0.0125319
-0.0147709
-0.0169144
-0.0189678
-0.0209361
-0.0228242
-0.0246369
-0.0263784
-0.0280532
-0.0296652
-0.0312186
-0.0327171
-0.0341646
-0.0355646
-0.0369208
-0.0382365
-0.0395151
-0.0407598
-0.0419737
-0.0431599
-0.0443212
-0.0454606
-0.0465806
-0.0476838
-0.0487727
-0.0498496
-0.0509165
-0.0519759
-0.0530292
-0.054079
-0.0551258
-0.0561726
-0.0572185
-0.0580949
-0.0587824
-0.0594505
-0.0601007
-0.0607345
-0.0613512
-0.0619504
-0.0625309
-0.0630929
-0.0636341
-0.0641552
-0.0646517
-0.0651261
-0.0655695
-0.0659896
-0.0663673
-0.0667251
-0.0670192
-0.0673113
-0.0674959
-0.0677372
-0.0677671
-0.0680219
-0.0677933
-0.0682523
0.219675
0.16687
0.143326
0.131281
0.119393
0.107877
0.0978368
0.0889255
0.0807492
0.0732035
0.0662299
0.0597526
0.0537084
0.0480504
0.0427398
0.0377435
0.0330331
0.0285841
0.0243754
0.0203885
0.0166068
0.0130158
0.00960239
0.00635474
0.00326221
0.000315063
-0.00249556
-0.00517784
-0.00773928
-0.0101869
-0.0125271
-0.014766
-0.0169093
-0.0189624
-0.0209304
-0.0228181
-0.0246301
-0.0263709
-0.0280446
-0.0296555
-0.0312074
-0.0327043
-0.0341497
-0.0355473
-0.0369007
-0.0382132
-0.039488
-0.0407285
-0.0419377
-0.0431184
-0.0442737
-0.0454063
-0.0465186
-0.0476134
-0.0486928
-0.0497592
-0.0508145
-0.0518609
-0.0528996
-0.0539331
-0.0549616
-0.0559877
-0.0570101
-0.0578639
-0.0585316
-0.0591785
-0.0598057
-0.0604145
-0.0610041
-0.0615738
-0.0621222
-0.0626491
-0.0631521
-0.0636315
-0.0640829
-0.0645087
-0.0649003
-0.065266
-0.0655876
-0.0658884
-0.0661274
-0.0663656
-0.0665048
-0.0667003
-0.0667071
-0.0669212
-0.0667119
-0.0671043
0.219489
0.167579
0.143452
0.131416
0.119505
0.107933
0.0978754
0.088962
0.0807807
0.0732295
0.0662523
0.0597726
0.0537263
0.0480665
0.0427544
0.0377569
0.0330454
0.0285955
0.0243861
0.0203984
0.0166162
0.0130246
0.00961075
0.00636271
0.00326984
0.000322408
-0.00248845
-0.00517089
-0.00773243
-0.01018
-0.0125202
-0.014759
-0.016902
-0.0189547
-0.0209221
-0.0228091
-0.0246201
-0.0263596
-0.0280318
-0.0296407
-0.0311903
-0.0326844
-0.0341265
-0.0355203
-0.0368692
-0.0381766
-0.0394455
-0.0406792
-0.0418807
-0.0430528
-0.0441984
-0.04532
-0.0464202
-0.0475014
-0.0485657
-0.0496154
-0.0506521
-0.0516778
-0.0526936
-0.0537013
-0.0547011
-0.0556946
-0.0566804
-0.0574993
-0.0581367
-0.0587514
-0.0593443
-0.0599162
-0.0604663
-0.0609936
-0.0614967
-0.0619752
-0.0624269
-0.0628521
-0.0632468
-0.0636136
-0.0639453
-0.0642496
-0.0645121
-0.0647531
-0.0649402
-0.0651237
-0.0652266
-0.065372
-0.0653706
-0.0655264
-0.0653626
-0.065644
0.219286
0.168346
0.143587
0.131556
0.119631
0.107997
0.0979182
0.0890029
0.0808164
0.0732591
0.0662781
0.0597958
0.0537472
0.0480854
0.0427717
0.0377728
0.0330601
0.0286093
0.0243989
0.0204105
0.0166276
0.0130355
0.00962112
0.00637264
0.00327939
0.000331661
-0.00247943
-0.00516203
-0.00772364
-0.0101712
-0.0125112
-0.0147497
-0.0168923
-0.0189444
-0.0209109
-0.0227966
-0.0246061
-0.0263437
-0.0280135
-0.0296195
-0.0311657
-0.0326556
-0.0340928
-0.0354808
-0.036823
-0.0381225
-0.0393825
-0.0406061
-0.041796
-0.0429551
-0.044086
-0.0451912
-0.0462731
-0.0473339
-0.0483756
-0.0494001
-0.050409
-0.0514038
-0.0523854
-0.053355
-0.0543123
-0.0552581
-0.0561906
-0.0569589
-0.057553
-0.0581226
-0.0586679
-0.0591894
-0.0596863
-0.0601577
-0.0606025
-0.0610204
-0.0614096
-0.0617706
-0.0621008
-0.0624023
-0.0626708
-0.062912
-0.0631172
-0.0633003
-0.0634415
-0.0635735
-0.0636493
-0.0637453
-0.0637472
-0.0638386
-0.0637363
-0.0638912
0.219081
0.169134
0.143726
0.131696
0.119763
0.108062
0.0979622
0.0890456
0.0808539
0.0732904
0.0663055
0.0598206
0.0537697
0.0481058
0.0427906
0.0377903
0.0330764
0.0286245
0.0244132
0.0204241
0.0166404
0.0130477
0.00963282
0.00638389
0.00329026
0.000342234
-0.00246907
-0.00515178
-0.0077134
-0.0101609
-0.0125006
-0.0147386
-0.0168805
-0.0189316
-0.0208968
-0.0227808
-0.0245881
-0.026323
-0.0279895
-0.0295915
-0.0311327
-0.0326167
-0.034047
-0.0354269
-0.0367596
-0.0380482
-0.0392957
-0.0405049
-0.0416785
-0.0428193
-0.0439296
-0.0450117
-0.0460679
-0.0471001
-0.0481102
-0.0490997
-0.0500698
-0.0510217
-0.051956
-0.052873
-0.0537723
-0.0546534
-0.0555144
-0.0562161
-0.0567539
-0.0572654
-0.0577505
-0.0582095
-0.0586417
-0.0590468
-0.0594241
-0.0597736
-0.0600945
-0.0603874
-0.0606515
-0.0608882
-0.0610962
-0.061279
-0.0614332
-0.0615664
-0.0616703
-0.0617608
-0.0618177
-0.061876
-0.0618864
-0.0619296
-0.0618843
-0.0619439
0.218886
0.169872
0.14386
0.131822
0.119889
0.108125
0.0980036
0.0890858
0.0808894
0.07332
0.0663315
0.0598442
0.0537912
0.0481255
0.0428087
0.0378071
0.0330922
0.0286393
0.0244272
0.0204373
0.0166531
0.0130598
0.00964444
0.00639511
0.00330117
0.000352899
-0.00245855
-0.0051413
-0.00770282
-0.01015
-0.0124893
-0.0147266
-0.0168675
-0.0189173
-0.0208807
-0.0227624
-0.0245669
-0.0262982
-0.0279602
-0.0295568
-0.0310916
-0.0325679
-0.033989
-0.0353582
-0.0366784
-0.0379526
-0.0391835
-0.0403738
-0.041526
-0.0426425
-0.0437256
-0.0447775
-0.0457999
-0.0467947
-0.0477632
-0.0487068
-0.0496265
-0.0505228
-0.051396
-0.0522459
-0.0530716
-0.053872
-0.0546449
-0.0552661
-0.0557368
-0.05618
-0.0565958
-0.0569843
-0.0573454
-0.0576792
-0.0579859
-0.0582659
-0.0585193
-0.058747
-0.0589495
-0.0591279
-0.0592829
-0.0594164
-0.0595283
-0.0596222
-0.0596964