/*--------------------------------*- C++ -*----------------------------------*\
| =========                 |                                                 |
| \\      /  F ield         | OpenFOAM: The Open Source CFD Toolbox           |
|  \\    /   O peration     | Version:  2506                                  |
|   \\  /    A nd           | Website:  www.openfoam.com                      |
|    \\/     M anipulation  |                                                 |
\*---------------------------------------------------------------------------*/
FoamFile
{
    version     2.0;
    format      ascii;
    arch        "LSB;label=32;scalar=64";
    class       volScalarField;
    location    "2000";
    object      p;
}
// * * * * * * * * * * * * * * * * * * * * * * * * * * * * * * * * * * * * * //

dimensions      [0 2 -2 0 0 0 0];

internalField   nonuniform List<scalar> 
20540
(
1441.61
1469.06
1441.61
1469.04
1441.61
1469.01
1441.61
1468.97
1441.6
1468.93
1441.6
1468.88
1441.59
1468.82
1441.59
1468.74
1441.58
1468.65
1441.56
1468.54
1441.55
1468.4
1441.53
1468.23
1441.5
1468.01
1441.46
1467.75
1441.42
1467.42
1441.36
1467.01
1441.28
1466.5
1441.17
1465.86
1441.04
1465.08
1440.86
1464.12
1440.63
1462.94
1440.35
1461.53
1439.99
1459.85
1439.57
1457.89
1439.08
1455.66
1438.53
1453.18
1437.95
1450.52
1437.35
1447.73
1436.75
1444.92
1436.19
1442.28
1435.8
1440.39
1435.63
1439.41
1435.66
1439.31
1435.9
1440.09
1436.35
1441.75
1436.95
1444.11
1437.59
1446.66
1438.21
1449.22
1438.81
1451.69
1439.37
1454
1439.87
1456.1
1440.3
1457.96
1440.67
1459.57
1440.98
1460.94
1441.22
1462.09
1441.41
1463.04
1441.56
1463.82
1441.68
1464.46
1441.77
1464.98
1441.84
1465.4
1441.9
1465.74
1441.94
1466.01
1441.97
1466.23
1442
1466.41
1442.02
1466.56
1442.04
1466.68
1442.05
1466.78
1442.06
1466.86
1442.07
1466.92
1442.07
1466.98
1442.08
1467.02
1442.08
1467.06
1442.09
1467.09
1442.09
1467.12
1442.09
1467.14
1333.28
1089.56
1026.25
965.207
906.913
855.176
808.885
766.364
727.091
690.656
656.674
624.848
594.949
566.782
540.186
515.024
491.178
468.545
447.035
426.569
407.076
388.493
370.763
353.833
337.657
322.192
307.397
293.236
279.675
266.682
254.229
242.285
230.827
219.829
209.266
199.118
189.362
179.978
170.946
162.247
153.861
145.772
137.96
130.41
123.104
116.026
109.16
102.49
96.0024
89.681
83.5119
77.4813
71.5756
65.7817
60.0872
54.4793
48.9468
43.4772
38.0606
32.6835
27.3384
22.0085
16.6902
12.2385
8.75062
5.34704
2.01854
-1.23615
-4.4211
-7.53918
-10.5937
-13.588
-16.5253
-19.4094
-22.2441
-25.0337
-27.7825
-30.4971
-33.1799
-35.8469
-38.4844
-41.1542
-43.7363
-46.545
-48.7985
-52.202
-51.855
-65.1564
1333.27
1089.58
1026.25
965.208
906.914
855.177
808.886
766.365
727.091
690.657
656.674
624.849
594.949
566.782
540.187
515.024
491.178
468.545
447.035
426.569
407.076
388.493
370.763
353.833
337.658
322.192
307.397
293.236
279.675
266.683
254.229
242.286
230.827
219.829
209.267
199.118
189.363
179.979
170.946
162.247
153.861
145.772
137.96
130.41
123.104
116.026
109.16
102.49
96.0022
89.6808
83.5117
77.481
71.5753
65.7813
60.0867
54.4788
48.9462
43.4765
38.0598
32.6826
27.3373
22.0073
16.6889
12.237
8.749
5.34527
2.01661
-1.23824
-4.42338
-7.54165
-10.5964
-13.5909
-16.5285
-19.413
-22.248
-25.0381
-27.7873
-30.5025
-33.1861
-35.854
-38.4927
-41.1644
-43.7484
-46.5625
-48.8208
-52.2596
-52.023
-65.1968
1333.25
1089.59
1026.26
965.211
906.916
855.178
808.887
766.365
727.092
690.657
656.675
624.849
594.95
566.783
540.187
515.025
491.178
468.545
447.035
426.569
407.077
388.494
370.763
353.834
337.658
322.192
307.397
293.236
279.675
266.683
254.229
242.286
230.827
219.829
209.267
199.118
189.363
179.979
170.946
162.247
153.861
145.772
137.96
130.41
123.104
116.026
109.16
102.49
96.002
89.6805
83.5114
77.4806
71.5748
65.7808
60.0861
54.4781
48.9454
43.4756
38.0587
32.6814
27.3359
22.0057
16.6871
12.235
8.74678
5.34287
2.014
-1.24108
-4.42646
-7.54501
-10.6001
-13.5949
-16.5329
-19.4178
-22.2533
-25.0439
-27.7939
-30.5099
-33.1945
-35.8637
-38.5039
-41.1783
-43.7648
-46.5862
-48.8512
-52.3374
-52.2456
-65.2152
1333.23
1089.61
1026.27
965.214
906.917
855.18
808.888
766.366
727.093
690.658
656.675
624.85
594.95
566.783
540.187
515.025
491.179
468.545
447.036
426.57
407.077
388.494
370.763
353.834
337.658
322.192
307.397
293.237
279.676
266.683
254.229
242.286
230.827
219.829
209.267
199.119
189.363
179.979
170.947
162.247
153.861
145.772
137.96
130.41
123.104
116.026
109.16
102.49
96.0018
89.6802
83.511
77.4802
71.5743
65.7802
60.0854
54.4772
48.9444
43.4745
38.0574
32.6799
27.3343
22.0038
16.6849
12.2326
8.74418
5.34005
2.01093
-1.24441
-4.43008
-7.54895
-10.6044
-13.5996
-16.538
-19.4234
-22.2595
-25.0508
-27.8016
-30.5186
-33.2043
-35.8751
-38.5172
-41.1945
-43.7842
-46.614
-48.8876
-52.4266
-52.4974
-65.2214
1333.21
1089.64
1026.28
965.217
906.92
855.181
808.889
766.368
727.094
690.659
656.676
624.851
594.951
566.784
540.188
515.026
491.179
468.546
447.036
426.57
407.077
388.494
370.764
353.834
337.658
322.193
307.398
293.237
279.676
266.683
254.229
242.286
230.828
219.829
209.267
199.119
189.363
179.979
170.947
162.247
153.861
145.772
137.96
130.41
123.104
116.025
109.159
102.49
96.0015
89.6799
83.5106
77.4797
71.5737
65.7794
60.0845
54.4762
48.9433
43.4731
38.0559
32.6782
27.3323
22.0016
16.6823
12.2297
8.7411
5.3367
2.00729
-1.24837
-4.43439
-7.55363
-10.6095
-13.6051
-16.5441
-19.4301
-22.2668
-25.059
-27.8107
-30.5288
-33.216
-35.8886
-38.5329
-41.2137
-43.8072
-46.6468
-48.9318
-52.5289
-52.7824
-65.2203
1333.19
1089.66
1026.29
965.221
906.922
855.184
808.891
766.369
727.095
690.66
656.677
624.851
594.951
566.784
540.188
515.026
491.18
468.546
447.036
426.57
407.078
388.495
370.764
353.835
337.659
322.193
307.398
293.237
279.676
266.683
254.229
242.286
230.828
219.829
209.267
199.119
189.363
179.979
170.947
162.247
153.862
145.772
137.96
130.41
123.104
116.025
109.159
102.489
96.0012
89.6795
83.5101
77.479
71.5729
65.7786
60.0835
54.475
48.9419
43.4715
38.0541
32.6761
27.3299
21.9989
16.6793
12.2263
8.7374
5.33268
2.00292
-1.25311
-4.43954
-7.55924
-10.6156
-13.6118
-16.5514
-19.4381
-22.2757
-25.0688
-27.8216
-30.5411
-33.2299
-35.9047
-38.5516
-41.2366
-43.835
-46.6858
-48.986
-52.6468
-53.1051
-65.2118
1333.15
1089.7
1026.3
965.226
906.926
855.186
808.893
766.371
727.097
690.661
656.678
624.852
594.952
566.785
540.189
515.027
491.18
468.547
447.037
426.571
407.078
388.495
370.765
353.835
337.659
322.193
307.398
293.237
279.676
266.684
254.23
242.287
230.828
219.83
209.267
199.119
189.363
179.979
170.947
162.247
153.862
145.772
137.96
130.41
123.104
116.025
109.159
102.489
96.0008
89.679
83.5095
77.4783
71.5721
65.7775
60.0822
54.4736
48.9402
43.4696
38.0519
32.6736
27.3271
21.9957
16.6756
12.2222
8.73296
5.32787
1.99769
-1.2588
-4.44572
-7.56596
-10.6229
-13.6198
-16.5601
-19.4477
-22.2862
-25.0805
-27.8346
-30.5558
-33.2466
-35.924
-38.5741
-41.2639
-43.8683
-46.732
-49.0523
-52.7811
-53.4654
-65.1942
1333.11
1089.74
1026.31
965.232
906.93
855.189
808.896
766.373
727.098
690.663
656.679
624.853
594.953
566.786
540.19
515.028
491.181
468.548
447.038
426.571
407.079
388.496
370.765
353.835
337.659
322.194
307.399
293.238
279.677
266.684
254.23
242.287
230.828
219.83
209.268
199.119
189.363
179.979
170.947
162.247
153.862
145.772
137.96
130.41
123.103
116.025
109.159
102.489
96.0003
89.6784
83.5087
77.4774
71.571
65.7762
60.0807
54.4718
48.9382
43.4673
38.0493
32.6706
27.3237
21.9918
16.6712
12.2174
8.72765
5.32211
1.99143
-1.26559
-4.4531
-7.57398
-10.6316
-13.6293
-16.5705
-19.4591
-22.2988
-25.0944
-27.8501
-30.5732
-33.2664
-35.9469
-38.6008
-41.2963
-43.9083
-46.7865
-49.1333
-52.932
-53.8597
-65.1643
1333.07
1089.78
1026.33
965.239
906.934
855.193
808.899
766.375
727.1
690.664
656.681
624.855
594.955
566.787
540.191
515.029
491.182
468.548
447.038
426.572
407.079
388.496
370.766
353.836
337.66
322.194
307.399
293.238
279.677
266.684
254.23
242.287
230.829
219.83
209.268
199.12
189.364
179.98
170.947
162.248
153.862
145.772
137.96
130.41
123.103
116.025
109.158
102.488
95.9997
89.6777
83.5079
77.4763
71.5697
65.7747
60.079
54.4698
48.9358
43.4646
38.0461
32.667
27.3196
21.9872
16.666
12.2115
8.72133
5.31525
1.98397
-1.27368
-4.46189
-7.58353
-10.642
-13.6406
-16.5829
-19.4727
-22.3138
-25.111
-27.8686
-30.594
-33.2899
-35.974
-38.6325
-41.3345
-43.956
-46.8499
-49.2313
-53.098
-54.2806
-65.1153
1333
1089.84
1026.35
965.248
906.94
855.198
808.903
766.378
727.103
690.667
656.683
624.857
594.956
566.789
540.192
515.03
491.183
468.549
447.039
426.573
407.08
388.497
370.766
353.837
337.661
322.195
307.4
293.239
279.678
266.685
254.231
242.288
230.829
219.831
209.268
199.12
189.364
179.98
170.948
162.248
153.862
145.772
137.96
130.41
123.103
116.025
109.158
102.488
95.9991
89.6768
83.5068
77.4751
71.5682
65.7729
60.0769
54.4673
48.933
43.4613
38.0424
32.6628
27.3148
21.9817
16.6597
12.2046
8.71381
5.3071
1.97512
-1.28329
-4.47232
-7.59487
-10.6543
-13.6541
-16.5976
-19.4888
-22.3315
-25.1305
-27.8904
-30.6184
-33.3177
-36.0058
-38.6699
-41.3792
-44.0126
-46.9231
-49.3489
-53.2757
-54.7156
-65.0347
1332.93
1089.9
1026.38
965.259
906.947
855.203
808.907
766.382
727.106
690.669
656.685
624.859
594.958
566.79
540.194
515.031
491.184
468.551
447.04
426.574
407.081
388.498
370.767
353.838
337.661
322.196
307.401
293.24
279.678
266.686
254.232
242.288
230.83
219.831
209.269
199.121
189.365
179.98
170.948
162.248
153.862
145.772
137.96
130.41
123.103
116.024
109.158
102.487
95.9983
89.6758
83.5056
77.4736
71.5664
65.7708
60.0744
54.4644
48.9296
43.4575
38.038
32.6578
27.3091
21.9752
16.6524
12.1964
8.70492
5.29746
1.96466
-1.29464
-4.48464
-7.60825
-10.6689
-13.6699
-16.6149
-19.5077
-22.3523
-25.1535
-27.916
-30.6471
-33.3502
-36.0431
-38.7137
-41.431
-44.0792
-47.0061
-49.4876
-53.4583
-55.1467
-64.9005
1332.83
1089.98
1026.41
965.271
906.955
855.21
808.912
766.386
727.11
690.672
656.688
624.861
594.96
566.792
540.196
515.033
491.186
468.552
447.042
426.575
407.082
388.499
370.768
353.839
337.662
322.197
307.401
293.24
279.679
266.686
254.232
242.289
230.83
219.832
209.269
199.121
189.365
179.981
170.948
162.248
153.863
145.772
137.96
130.41
123.103
116.024
109.157
102.487
95.9974
89.6747
83.5041
77.4718
71.5643
65.7683
60.0714
54.461
48.9257
43.453
38.0328
32.6518
27.3023
21.9676
16.6437
12.1868
8.69447
5.28613
1.95237
-1.30797
-4.4991
-7.62394
-10.6859
-13.6885
-16.6352
-19.5298
-22.3766
-25.1804
-27.9458
-30.6805
-33.3879
-36.0861
-38.7643
-41.4901
-44.1564
-47.098
-49.6468
-53.6343
-55.5488
-64.6782
1332.7
1090.07
1026.44
965.287
906.965
855.218
808.919
766.391
727.114
690.676
656.691
624.864
594.963
566.795
540.198
515.035
491.188
468.554
447.043
426.577
407.084
388.5
370.77
353.84
337.663
322.198
307.403
293.241
279.68
266.687
254.233
242.29
230.831
219.833
209.27
199.122
189.366
179.981
170.949
162.249
153.863
145.773
137.961
130.409
123.103
116.024
109.157
102.486
95.9963
89.6733
83.5025
77.4698
71.5618
65.7654
60.068
54.457
48.9211
43.4477
38.0268
32.6449
27.2945
21.9587
16.6336
12.1755
8.68227
5.27291
1.93804
-1.3235
-4.51594
-7.64219
-10.7058
-13.71
-16.6586
-19.5555
-22.4047
-25.2113
-27.9801
-30.7187
-33.4311
-36.1351
-38.822
-41.5565
-44.2438
-47.1961
-49.8219
-53.7857
-55.8899
-64.3213
1332.54
1090.17
1026.48
965.305
906.977
855.227
808.926
766.397
727.119
690.681
656.695
624.868
594.966
566.798
540.201
515.037
491.19
468.556
447.045
426.579
407.085
388.502
370.771
353.841
337.665
322.199
307.404
293.243
279.681
266.688
254.234
242.291
230.832
219.833
209.271
199.122
189.366
179.982
170.949
162.249
153.863
145.773
137.961
130.409
123.102
116.023
109.156
102.485
95.9951
89.6718
83.5005
77.4674
71.559
65.762
60.0641
54.4524
48.9158
43.4415
38.0197
32.6369
27.2854
21.9484
16.6219
12.1625
8.66817
5.25764
1.92151
-1.3414
-4.53531
-7.66318
-10.7285
-13.7347
-16.6855
-19.5847
-22.4367
-25.2465
-28.0189
-30.7618
-33.4796
-36.1896
-38.8858
-41.6284
-44.3389
-47.2952
-50.0012
-53.8867
-56.13
-63.7776
1332.33
1090.3
1026.53
965.328
906.992
855.239
808.935
766.405
727.125
690.686
656.7
624.872
594.97
566.801
540.204
515.04
491.193
468.558
447.048
426.581
407.087
388.504
370.773
353.843
337.666
322.201
307.405
293.244
279.683
266.69
254.235
242.292
230.833
219.834
209.272
199.123
189.367
179.983
170.95
162.25
153.864
145.773
137.961
130.409
123.102
116.023
109.155
102.484
95.9937
89.67
83.4983
77.4647
71.5557
65.7582
60.0595
54.4472
48.9097
43.4345
38.0117
32.6278
27.275
21.9366
16.6086
12.1477
8.65212
5.24027
1.90274
-1.3617
-4.55725
-7.6869
-10.7542
-13.7625
-16.7156
-19.6175
-22.4724
-25.2854
-28.0617
-30.809
-33.5322
-36.2481
-38.9536
-41.7025
-44.4352
-47.3848
-50.1618
-53.9027
-56.2192
-62.985
1332.07
1090.45
1026.59
965.355
907.009
855.252
808.946
766.414
727.133
690.693
656.706
624.877
594.974
566.805
540.207
515.044
491.196
468.561
447.05
426.583
407.09
388.506
370.775
353.845
337.668
322.202
307.407
293.246
279.684
266.691
254.237
242.293
230.835
219.836
209.273
199.125
189.368
179.984
170.951
162.251
153.864
145.774
137.961
130.409
123.102
116.022
109.154
102.483
95.9922
89.668
83.4959
77.4617
71.5521
65.7539
60.0545
54.4412
48.9028
43.4266
38.0027
32.6175
27.2634
21.9234
16.5937
12.1312
8.63422
5.22093
1.88189
-1.38421
-4.58151
-7.71305
-10.7824
-13.7929
-16.7484
-19.6529
-22.5108
-25.327
-28.107
-30.8582
-33.5864
-36.3068
-39.0199
-41.7711
-44.5202
-47.4468
-50.2662
-53.7901
-56.0974
-61.8894
1331.73
1090.64
1026.65
965.388
907.029
855.268
808.959
766.424
727.142
690.7
656.712
624.883
594.98
566.81
540.212
515.048
491.199
468.565
447.054
426.586
407.093
388.509
370.778
353.847
337.671
322.205
307.409
293.248
279.686
266.693
254.239
242.295
230.836
219.837
209.275
199.126
189.369
179.985
170.952
162.252
153.865
145.774
137.961
130.41
123.102
116.022
109.154
102.482
95.9906
89.666
83.4932
77.4585
71.5482
65.7492
60.049
54.4348
48.8954
43.4181
37.9929
32.6064
27.2507
21.9091
16.5775
12.1133
8.6149
5.20011
1.85954
-1.40826
-4.60732
-7.74074
-10.812
-13.8247
-16.7824
-19.6893
-22.5497
-25.3686
-28.1514
-30.9053
-33.6364
-36.3584
-39.0744
-41.8199
-44.571
-47.4506
-50.2598
-53.4969
-55.6972
-60.4739
1331.31
1090.88
1026.72
965.429
907.054
855.287
808.974
766.436
727.152
690.709
656.72
624.89
594.986
566.816
540.217
515.052
491.204
468.569
447.057
426.59
407.096
388.512
370.781
353.85
337.673
322.207
307.412
293.25
279.688
266.695
254.241
242.297
230.838
219.839
209.276
199.127
189.371
179.986
170.953
162.253
153.866
145.775
137.962
130.41
123.102
116.021
109.153
102.48
95.9891
89.6639
83.4906
77.4552
71.5442
65.7444
60.0433
54.4281
48.8876
43.4092
37.9827
32.5948
27.2376
21.8944
16.561
12.0951
8.59521
5.17896
1.83701
-1.43233
-4.63296
-7.76798
-10.8409
-13.8552
-16.8145
-19.723
-22.5847
-25.4047
-28.1882
-30.9418
-33.6717
-36.389
-39.0982
-41.8238
-44.5509
-47.3482
-50.0726
-52.9635
-54.9545
-58.7581
1330.78
1091.19
1026.81
965.479
907.083
855.309
808.992
766.451
727.164
690.72
656.729
624.898
594.993
566.822
540.223
515.058
491.209
468.574
447.062
426.594
407.1
388.516
370.784
353.853
337.677
322.21
307.414
293.253
279.691
266.698
254.243
242.299
230.84
219.841
209.278
199.129
189.373
179.988
170.955
162.254
153.867
145.776
137.963
130.41
123.102
116.021
109.152
102.48
95.9878
89.6621
83.4882
77.4522
71.5405
65.7399
60.0379
54.4219
48.8803
43.4008
37.9731
32.5839
27.2253
21.8806
16.5457
12.0783
8.57723
5.15985
1.81698
-1.45341
-4.65497
-7.79083
-10.8644
-13.8791
-16.8386
-19.7466
-22.6073
-25.4252
-28.205
-30.9525
-33.6728
-36.3741
-39.0593
-41.7409
-44.4045
-47.0713
-49.624
-52.1261
-53.8213
-56.777
1330.15
1091.6
1026.9
965.543
907.118
855.335
809.013
766.468
727.179
690.732
656.74
624.907
595.002
566.83
540.23
515.064
491.215
468.579
447.067
426.599
407.104
388.52
370.788
353.857
337.68
322.214
307.418
293.256
279.694
266.701
254.246
242.302
230.843
219.844
209.281
199.132
189.375
179.99
170.957
162.256
153.869
145.777
137.964
130.411
123.103
116.022
109.153
102.479
95.9872
89.6611
83.4867
77.4501
71.5378
65.7366
60.034
54.4172
48.8748
43.3944
37.9658
32.5757
27.2161
21.8705
16.5348
12.0667
8.56502
5.14729
1.80451
-1.46578
-4.6669
-7.80195
-10.8742
-13.8869
-16.8433
-19.7471
-22.6018
-25.4113
-28.1794
-30.9101
-33.6065
-36.2722
-38.906
-41.5073
-44.0547
-46.5321
-48.8299
-50.9221
-52.2714
-54.5528
1329.41
1092.18
1027
965.625
907.16
855.365
809.037
766.488
727.195
690.746
656.753
624.918
595.012
566.839
540.238
515.072
491.222
468.585
447.073
426.605
407.11
388.525
370.793
353.862
337.684
322.218
307.422
293.26
279.698
266.704
254.249
242.305
230.846
219.847
209.284
199.134
189.377
179.992
170.959
162.258
153.871
145.779
137.966
130.413
123.104
116.023
109.154
102.481
95.9881
89.6617
83.4872
77.4503
71.5378
65.7363
60.0333
54.4162
48.8736
43.393
37.9642
32.574
27.2144
21.8692
16.5342
12.067
8.56603
5.14956
1.80891
-1.45898
-4.65699
-7.78803
-10.8551
-13.8611
-16.809
-19.7015
-22.5415
-25.3315
-28.0735
-30.769
-33.4178
-36.0177
-38.5604
-41.0326
-43.4023
-45.6296
-47.6091
-49.2953
-50.2931
-52.0746
1328.59
1092.98
1027.11
965.734
907.212
855.401
809.067
766.512
727.215
690.763
656.767
624.931
595.023
566.849
540.248
515.08
491.23
468.593
447.08
426.611
407.116
388.531
370.798
353.867
337.689
322.222
307.426
293.264
279.702
266.708
254.253
242.309
230.849
219.85
209.287
199.138
189.381
179.995
170.962
162.261
153.874
145.782
137.969
130.416
123.108
116.027
109.157
102.484
95.992
89.6659
83.4916
77.4551
71.5429
65.7419
60.0396
54.4232
48.8814
43.4018
37.9744
32.5859
27.2283
21.8859
16.5546
12.0912
8.59361
5.1815
1.84672
-1.41446
-4.60441
-7.72561
-10.7806
-13.7716
-16.7009
-19.5701
-22.3806
-25.1328
-27.8264
-30.4588
-33.025
-35.5159
-37.9155
-40.2
-42.3299
-44.257
-45.886
-47.1951
-47.8713
-49.295
1327.75
1094.1
1027.25
965.888
907.279
855.444
809.102
766.541
727.238
690.783
656.784
624.946
595.036
566.861
540.258
515.09
491.239
468.601
447.088
426.618
407.123
388.537
370.804
353.873
337.695
322.227
307.431
293.269
279.706
266.712
254.257
242.313
230.854
219.854
209.291
199.142
189.385
180
170.966
162.266
153.879
145.787
137.974
130.422
123.114
116.034
109.165
102.493
96.0015
89.6765
83.5035
77.4685
71.5582
65.7591
60.0591
54.4453
48.9066
43.4305
38.0072
32.6236
27.272
21.9369
16.6147
12.1608
8.67123
5.26913
1.94687
-1.29999
-4.47316
-7.57435
-10.6053
-13.5674
-16.4613
-19.2873
-22.0444
-24.7305
-27.3415
-29.8705
-32.3072
-34.6362
-36.8352
-38.8751
-40.7142
-42.3113
-43.588
-44.5673
-44.969
-46.1362
1326.97
1095.62
1027.42
966.109
907.37
855.497
809.147
766.576
727.266
690.807
656.805
624.964
595.052
566.875
540.271
515.102
491.249
468.611
447.097
426.627
407.131
388.544
370.811
353.879
337.701
322.234
307.437
293.274
279.712
266.718
254.262
242.318
230.859
219.859
209.296
199.147
189.39
180.005
170.972
162.272
153.886
145.796
137.983
130.432
123.126
116.047
109.18
102.51
96.0212
89.6991
83.5294
77.4981
71.5919
65.7977
60.103
54.4955
48.9638
43.4958
38.0818
32.7091
27.3702
22.0505
16.7471
12.3122
8.83939
5.45721
2.15883
-1.06071
-4.20233
-7.26654
-10.2538
-13.1641
-15.9964
-18.7484
-21.4166
-23.9955
-26.4772
-28.8507
-31.1012
-33.2099
-35.1523
-36.9014
-38.4211
-39.688
-40.6377
-41.3474
-41.5086
-42.5081
1326.37
1097.62
1027.65
966.434
907.499
855.566
809.205
766.622
727.302
690.836
656.83
624.986
595.071
566.893
540.287
515.116
491.262
468.623
447.107
426.637
407.14
388.553
370.82
353.887
337.708
322.241
307.444
293.281
279.718
266.724
254.269
242.324
230.865
219.865
209.303
199.154
189.398
180.014
170.982
162.283
153.898
145.809
137.999
130.45
123.147
116.071
109.208
102.543
96.0593
89.7431
83.5802
77.5565
71.659
65.8745
60.1909
54.5958
49.0782
43.6264
38.2308
32.8794
27.5654
22.275
17.007
12.6077
9.1664
5.82091
2.56521
-0.605785
-3.69196
-6.69217
-9.60522
-12.4291
-15.1605
-17.7948
-20.3253
-22.7437
-25.0391
-27.1983
-29.2049
-31.0411
-32.6855
-34.1195
-35.3164
-36.275
-36.9362
-37.4334
-37.3872
-38.3091
1326.03
1100.12
1027.96
966.9
907.687
855.661
809.285
766.685
727.35
690.876
656.864
625.015
595.096
566.914
540.306
515.133
491.278
468.637
447.121
426.649
407.151
388.564
370.83
353.896
337.717
322.249
307.452
293.289
279.726
266.732
254.276
242.332
230.873
219.874
209.312
199.164
189.409
180.026
170.996
162.299
153.917
145.832
138.026
130.482
123.184
116.115
109.26
102.603
96.1293
89.8245
83.6743
77.6653
71.7841
66.0181
60.3552
54.7835
49.2924
43.8705
38.509
33.1967
27.9279
22.6906
17.4854
13.149
9.76371
6.48194
3.29864
0.209155
-2.78505
-5.68092
-8.47527
-11.1641
-13.7419
-16.2017
-18.5353
-20.7326
-22.7822
-24.6716
-26.3871
-27.9159
-29.2434
-30.3626
-31.2555
-31.9425
-32.3596
-32.6917
-32.4807
-33.3244
1325.97
1103.06
1028.35
967.535
907.959
855.793
809.397
766.773
727.416
690.93
656.909
625.053
595.129
566.943
540.332
515.156
491.299
468.656
447.138
426.665
407.166
388.577
370.842
353.909
337.729
322.26
307.462
293.299
279.736
266.742
254.286
242.343
230.884
219.886
209.325
199.179
189.426
180.046
171.02
162.327
153.95
145.871
138.072
130.537
123.249
116.192
109.35
102.709
96.2534
89.9691
83.8421
77.8592
72.0075
66.2746
60.6489
55.119
49.6748
44.3059
39.0044
33.7607
28.5705
23.4245
18.326
14.0953
10.8041
7.62707
4.56015
1.59987
-1.25089
-3.98731
-6.60455
-9.09709
-11.4583
-13.6806
-15.7557
-17.6747
-19.4286
-21.0089
-22.4073
-23.6183
-24.6351
-25.4616
-26.0853
-26.544
-26.7632
-26.9661
-26.6378
-27.3745
1326.14
1106.28
1028.79
968.329
908.325
855.973
809.551
766.895
727.509
691.005
656.972
625.107
595.175
566.983
540.367
515.188
491.327
468.682
447.161
426.686
407.186
388.596
370.86
353.925
337.744
322.275
307.477
293.313
279.75
266.756
254.301
242.358
230.9
219.904
209.345
199.202
189.453
180.078
171.057
162.372
154.004
145.935
138.15
130.629
123.359
116.322
109.504
102.89
96.466
90.2169
84.13
78.1922
72.3913
66.7153
61.1534
55.6949
50.3307
45.0517
39.8515
34.7225
29.6628
24.6667
19.7412
15.6799
12.5383
9.52395
6.63395
3.8663
1.22498
-1.28436
-3.65636
-5.8855
-7.96584
-9.89132
-11.656
-13.2548
-14.6829
-15.9377
-17.0167
-17.9221
-18.6526
-19.2207
-19.6157
-19.8866
-19.9512
-20.0457
-19.6521
-20.2299
1326.39
1109.55
1029.25
969.216
908.766
856.192
809.743
767.052
727.629
691.104
657.056
625.178
595.237
567.038
540.415
515.231
491.366
468.717
447.193
426.716
407.213
388.621
370.883
353.947
337.766
322.295
307.496
293.332
279.769
266.775
254.322
242.38
230.925
219.931
209.376
199.238
189.495
180.128
171.117
162.444
154.091
146.04
138.275
130.78
123.539
116.536
109.757
103.188
96.8153
90.6247
84.6038
78.7404
73.0229
67.4404
61.9829
56.6409
51.4067
46.273
41.2354
36.289
31.435
26.6721
22.0107
18.2022
15.2806
12.5007
9.85959
7.35661
4.99568
2.7816
0.71843
-1.19026
-2.94119
-4.53176
-5.96016
-7.22594
-8.32958
-9.27376
-10.0612
-10.6992
-11.1903
-11.5511
-11.7728
-11.9047
-11.8705
-11.8808
-11.4933
-11.8674
1326.6
1112.6
1029.7
970.081
909.223
856.423
809.949
767.222
727.762
691.215
657.152
625.261
595.31
567.102
540.472
515.282
491.412
468.759
447.233
426.752
407.247
388.653
370.913
353.975
337.792
322.321
307.522
293.357
279.795
266.802
254.349
242.41
230.958
219.969
209.42
199.29
189.557
180.203
171.208
162.554
154.224
146.201
138.469
131.013
123.818
116.869
110.152
103.654
97.3621
91.2635
85.3465
79.6
74.0135
68.5773
63.2826
58.1218
53.0887
48.1783
43.3882
38.7174
34.1694
29.7487
25.4682
22.0175
19.3986
16.9318
14.6149
12.4474
10.4316
8.56959
6.86232
5.31011
3.91254
2.66826
1.57499
0.629203
-0.17336
-0.83865
-1.37234
-1.78339
-2.07663
-2.26724
-2.35058
-2.36453
-2.25662
-2.17186
-1.82002
-1.92853
1326.67
1114.71
1030.05
970.709
909.572
856.61
810.119
767.366
727.878
691.314
657.239
625.337
595.376
567.161
540.526
515.33
491.456
468.8
447.27
426.786
407.279
388.683
370.941
354.002
337.818
322.346
307.546
293.382
279.82
266.829
254.378
242.442
230.995
220.012
209.472
199.352
189.632
180.294
171.32
162.691
154.391
146.405
138.716
131.311
124.176
117.296
110.66
104.254
98.0673
92.088
86.3057
80.7104
75.2929
70.0447
64.9588
60.0288
55.2502
50.62
46.1374
41.8038
37.6244
33.6067
29.763
26.7095
24.4186
22.2825
20.2979
18.4641
16.7807
15.2464
13.8589
12.6154
11.5122
10.5449
9.70829
8.99638
8.40265
7.91966
7.54023
7.25553
7.05916
6.93953
6.89554
6.90496
6.99041
7.0798
7.30657
7.33996
1326.62
1115.76
1030.26
971.018
909.747
856.705
810.205
767.439
727.937
691.365
657.283
625.376
595.411
567.193
540.554
515.356
491.48
468.821
447.29
426.805
407.296
388.699
370.957
354.017
337.833
322.361
307.562
293.398
279.837
266.848
254.4
242.468
231.026
220.05
209.519
199.41
189.705
180.386
171.433
162.831
154.564
146.617
138.975
131.625
124.554
117.75
111.2
104.894
98.8198
92.9687
87.3308
81.8974
76.6603
71.6125
66.7478
62.0613
57.5493
53.21
49.0434
45.052
41.2403
37.6164
34.1893
31.5042
29.5127
27.6724
25.9784
24.4294
23.0228
21.7546
20.6201
19.6146
18.7325
17.9677
17.3138
16.7638
16.3107
15.9471
15.6656
15.4585
15.319
15.2392
15.2138
15.2332
15.2974
15.3878
15.5271
15.65
1326.49
1115.79
1030.32
971.03
909.758
856.715
810.211
767.443
727.94
691.368
657.286
625.378
595.413
567.194
540.556
515.358
491.481
468.822
447.291
426.806
407.297
388.701
370.958
354.019
337.835
322.364
307.565
293.403
279.844
266.857
254.413
242.485
231.049
220.081
209.559
199.462
189.773
180.471
171.542
162.968
154.735
146.829
139.235
131.942
124.938
118.211
111.75
105.546
99.5886
93.8693
88.3797
83.1121
78.0595
73.2158
68.5756
64.1348
59.8902
55.8404
51.985
48.3264
44.8673
41.6149
38.5738
36.223
34.4974
32.9143
31.4679
30.1564
28.9755
27.9193
26.9815
26.1561
25.4365
24.8161
24.2879
23.8452
23.481
23.1884
22.9607
22.7917
22.6746
22.6047
22.5743
22.5824
22.6155
22.6883
22.756
22.9144
1326.27
1114.82
1030.24
970.745
909.605
856.639
810.137
767.379
727.888
691.323
657.246
625.343
595.382
567.166
540.53
515.334
491.46
468.803
447.272
426.789
407.282
388.686
370.945
354.007
337.824
322.354
307.557
293.397
279.84
266.856
254.415
242.492
231.062
220.101
209.589
199.504
189.83
180.547
171.64
163.094
154.894
147.027
139.481
132.243
125.304
118.651
112.277
106.172
100.327
94.7353
89.3886
84.2805
79.4049
74.7563
70.3299
66.1218
62.1288
58.3493
54.7818
51.4276
48.2867
45.3642
42.6592
40.592
39.0881
37.7163
36.4701
35.3473
34.3424
33.448
32.6572
31.9633
31.3596
30.8393
30.3956
30.0222
29.7125
29.4606
29.2604
29.1068
28.9939
28.9184
28.8725
28.8594
28.8596
28.9044
28.916
29.0728
1325.93
1112.81
1030.01
970.155
909.286
856.476
809.983
767.247
727.782
691.232
657.167
625.274
595.321
567.111
540.481
515.29
491.419
468.766
447.239
426.758
407.253
388.659
370.92
353.984
337.803
322.334
307.539
293.382
279.827
266.846
254.41
242.491
231.067
220.113
209.61
199.537
189.876
180.61
171.725
163.204
155.034
147.204
139.701
132.514
125.633
119.05
112.754
106.74
100.997
95.5212
90.3044
85.3409
80.6252
76.1524
71.9177
67.9174
64.1478
60.6064
57.2904
54.1994
51.3307
48.6868
46.2622
44.428
43.1021
41.8967
40.8062
39.8281
38.9557
38.1811
37.497
36.8966
36.3734
35.921
35.5331
35.2039
34.9279
34.6998
34.5147
34.3683
34.2556
34.1744
34.1176
34.0897
34.0708
34.0961
34.079
34.2277
1325.51
1109.96
1029.69
969.347
908.868
856.269
809.795
767.09
727.659
691.129
657.078
625.197
595.253
567.052
540.428
515.242
491.376
468.726
447.202
426.724
407.222
388.63
370.893
353.959
337.78
322.313
307.52
293.364
279.812
266.834
254.4
242.486
231.066
220.118
209.622
199.558
189.908
180.655
171.786
163.284
155.138
147.336
139.866
132.717
125.882
119.351
113.116
107.17
101.506
96.1172
90.9986
86.1442
81.549
77.2081
73.1168
69.2711
65.6667
62.3003
59.1676
56.2667
53.5924
51.1449
48.9151
47.2397
46.0331
44.9383
43.95
43.0653
42.2771
41.577
40.9579
40.4129
39.9357
39.5201
39.1602
38.8507
38.5862
38.3621
38.1736
38.0169
37.8874
37.7832
37.6976
37.6353
37.576
37.559
37.4856
37.6107
1325.1
1106.89
1029.32
968.512
908.46
856.069
809.617
766.944
727.547
691.036
656.998
625.129
595.195
567
540.382
515.201
491.339
468.693
447.172
426.697
407.196
388.607
370.871
353.938
337.761
322.296
307.504
293.35
279.799
266.823
254.391
242.48
231.063
220.119
209.627
199.569
189.926
180.683
171.824
163.335
155.204
147.42
139.971
132.848
126.042
119.544
113.348
107.446
101.832
96.5002
91.4446
86.6602
82.1418
77.8849
73.8847
70.1368
66.6364
63.3796
60.3611
57.5776
55.0225
52.6939
50.5806
48.9987
47.8618
46.8314
45.9021
45.0707
44.3298
43.6711
43.0873
42.572
42.119
41.7226
41.3773
41.078
40.8202
40.5995
40.412
40.2544
40.1228
40.0156
39.9273
39.8621
39.8022
39.7846
39.7125
39.8628
1324.79
1103.85
1028.95
967.757
908.116
855.901
809.471
766.827
727.459
690.964
656.938
625.078
595.15
566.962
540.348
515.171
491.312
468.668
447.149
426.676
407.177
388.589
370.855
353.923
337.747
322.283
307.492
293.339
279.79
266.814
254.384
242.474
231.059
220.118
209.629
199.575
189.936
180.698
171.846
163.365
155.244
147.47
140.035
132.927
126.139
119.662
113.49
107.615
102.032
96.7349
91.7178
86.9761
82.5047
78.299
74.354
70.6653
67.2276
64.0366
61.0863
58.3726
55.8876
53.6286
51.5829
50.0547
48.9569
47.9625
47.0662
46.2643
45.5491
44.9123
44.3469
43.8466
43.4054
43.0177
42.6782
42.3821
42.1251
41.903
41.7121
41.5493
41.411
41.2952
41.1978
41.1204
41.0511
41.0152
40.9406
41.0592
1324.71
1101.06
1028.61
967.143
907.856
855.775
809.362
766.742
727.394
690.912
656.893
625.04
595.118
566.934
540.323
515.149
491.292
468.65
447.133
426.661
407.163
388.576
370.843
353.912
337.736
322.273
307.483
293.33
279.782
266.807
254.378
242.469
231.056
220.116
209.629
199.577
189.941
180.706
171.857
163.381
155.266
147.499
140.071
132.973
126.195
119.731
113.573
107.714
102.149
96.8721
91.8777
87.161
82.7171
78.5412
74.6284
70.974
67.5727
64.4196
61.5083
58.8343
56.3892
54.1691
52.1611
50.662
49.5849
48.6097
47.7313
46.945
46.2429
45.6172
45.0608
44.5675
44.1314
43.7471
43.4094
43.1138
42.8559
42.6319
42.4382
42.2716
42.1292
42.0085
41.9064
41.8228
41.7502
41.7036
41.6352
41.7257
1324.91
1098.65
1028.34
966.684
907.672
855.682
809.284
766.68
727.347
690.873
656.861
625.012
595.094
566.912
540.304
515.132
491.276
468.636
447.12
426.649
407.152
388.565
370.833
353.903
337.728
322.265
307.475
293.323
279.775
266.801
254.373
242.465
231.052
220.113
209.627
199.576
189.942
180.709
171.863
163.389
155.277
147.514
140.091
132.998
126.226
119.769
113.619
107.769
102.214
96.9487
91.967