/*--------------------------------*- C++ -*----------------------------------*\
| =========                 |                                                 |
| \\      /  F ield         | OpenFOAM: The Open Source CFD Toolbox           |
|  \\    /   O peration     | Version:  2506                                  |
|   \\  /    A nd           | Website:  www.openfoam.com                      |
|    \\/     M anipulation  |                                                 |
\*---------------------------------------------------------------------------*/
FoamFile
{
    version     2.0;
    format      ascii;
    arch        "LSB;label=32;scalar=64";
    class       volScalarField;
    location    "2000";
    object      p;
}
// * * * * * * * * * * * * * * * * * * * * * * * * * * * * * * * * * * * * * //

dimensions      [0 2 -2 0 0 0 0];

internalField   nonuniform List<scalar> 
20540
(
3.65216
3.4984
3.65215
3.49837
3.65214
3.49834
3.65213
3.4983
3.65211
3.49825
3.65209
3.49819
3.65207
3.49812
3.65203
3.49804
3.65199
3.49795
3.65194
3.49783
3.65188
3.49769
3.6518
3.49753
3.65171
3.49732
3.65159
3.49708
3.65145
3.49679
3.65129
3.49643
3.65108
3.496
3.65083
3.49548
3.65054
3.49486
3.65018
3.4941
3.64976
3.4932
3.64925
3.49211
3.64865
3.49083
3.64795
3.48933
3.64714
3.4876
3.64622
3.48564
3.64518
3.48348
3.64406
3.48119
3.64292
3.47887
3.64185
3.47672
3.64108
3.47521
3.6407
3.4744
3.64071
3.4742
3.64111
3.47463
3.6419
3.47573
3.64296
3.47744
3.64409
3.47938
3.64521
3.48136
3.64625
3.48326
3.64719
3.48502
3.64803
3.4866
3.64875
3.48799
3.64938
3.48919
3.64991
3.49022
3.65036
3.49109
3.65074
3.49182
3.65107
3.49244
3.65134
3.49295
3.65156
3.49338
3.65175
3.49374
3.65191
3.49403
3.65204
3.49428
3.65214
3.49449
3.65223
3.49466
3.6523
3.49481
3.65236
3.49493
3.65241
3.49503
3.65245
3.49512
3.65248
3.49519
3.65251
3.49525
3.65253
3.4953
3.65254
3.49534
3.65256
3.49538
3.65257
3.49541
3.65257
3.49544
3.31162
3.03674
2.9699
2.85349
2.76583
2.67743
2.59566
2.51708
2.44205
2.36998
2.30073
2.23411
2.16999
2.10825
2.04878
1.9915
1.93632
1.88316
1.83194
1.78259
1.73504
1.68923
1.64509
1.60256
1.56158
1.5221
1.48405
1.44739
1.41207
1.37804
1.34524
1.31364
1.28319
1.25385
1.22558
1.19833
1.17207
1.14677
1.12238
1.09887
1.0762
1.05435
1.03327
1.01294
0.993324
0.974392
0.956113
0.938455
0.92139
0.904888
0.888919
0.873454
0.858465
0.843924
0.829802
0.816071
0.802705
0.789674
0.776953
0.764513
0.752326
0.740365
0.728598
0.71891
0.711394
0.704127
0.697086
0.690262
0.683641
0.677212
0.670964
0.664886
0.658969
0.653203
0.64758
0.642094
0.63674
0.631517
0.626433
0.621503
0.616767
0.612275
0.60818
0.604614
0.602204
0.601508
0.606739
0.595645
3.3116
3.03675
2.96991
2.85349
2.76583
2.67743
2.59566
2.51708
2.44205
2.36998
2.30073
2.23411
2.16999
2.10825
2.04878
1.9915
1.93632
1.88316
1.83194
1.78259
1.73504
1.68923
1.64509
1.60256
1.56158
1.5221
1.48405
1.44739
1.41207
1.37804
1.34524
1.31364
1.28319
1.25385
1.22558
1.19833
1.17207
1.14677
1.12238
1.09887
1.0762
1.05435
1.03327
1.01294
0.993324
0.974392
0.956112
0.938455
0.92139
0.904887
0.888918
0.873453
0.858464
0.843923
0.829801
0.81607
0.802703
0.789673
0.776951
0.764511
0.752324
0.740362
0.728595
0.718906
0.71139
0.704123
0.697081
0.690256
0.683635
0.677205
0.670956
0.664877
0.658959
0.653192
0.647568
0.64208
0.636724
0.631499
0.626412
0.621478
0.616736
0.612236
0.608129
0.604538
0.602076
0.601226
0.605748
0.594322
3.31158
3.03676
2.96991
2.85349
2.76583
2.67743
2.59567
2.51708
2.44205
2.36998
2.30073
2.23411
2.16999
2.10825
2.04878
1.9915
1.93632
1.88316
1.83194
1.78259
1.73504
1.68923
1.64509
1.60256
1.56158
1.5221
1.48405
1.44739
1.41207
1.37804
1.34524
1.31364
1.28319
1.25385
1.22558
1.19833
1.17207
1.14677
1.12238
1.09887
1.0762
1.05435
1.03327
1.01294
0.993324
0.974392
0.956112
0.938455
0.921389
0.904887
0.888918
0.873453
0.858464
0.843922
0.8298
0.816069
0.802702
0.789671
0.776949
0.764508
0.75232
0.740358
0.728591
0.718901
0.711384
0.704117
0.697074
0.690249
0.683626
0.677195
0.670945
0.664865
0.658946
0.653177
0.647551
0.642061
0.636702
0.631474
0.626383
0.621443
0.616695
0.612184
0.608058
0.604433
0.6019
0.600841
0.604428
0.592797
3.31155
3.03678
2.96992
2.85349
2.76583
2.67743
2.59567
2.51708
2.44205
2.36998
2.30073
2.23411
2.16999
2.10825
2.04878
1.9915
1.93632
1.88316
1.83194
1.78259
1.73504
1.68923
1.64509
1.60256
1.56158
1.5221
1.48405
1.44739
1.41207
1.37804
1.34524
1.31364
1.28319
1.25385
1.22558
1.19833
1.17207
1.14677
1.12238
1.09887
1.0762
1.05435
1.03327
1.01294
0.993324
0.974392
0.956112
0.938454
0.921389
0.904886
0.888917
0.873452
0.858463
0.843921
0.829798
0.816067
0.8027
0.789669
0.776946
0.764505
0.752317
0.740354
0.728585
0.718895
0.711378
0.704109
0.697066
0.69024
0.683616
0.677184
0.670933
0.664852
0.65893
0.65316
0.647531
0.642039
0.636677
0.631445
0.626349
0.621403
0.616646
0.612121
0.607974
0.604309
0.60169
0.600388
0.602933
0.591123
3.31151
3.0368
2.96993
2.85349
2.76583
2.67743
2.59567
2.51708
2.44205
2.36998
2.30073
2.23411
2.16999
2.10825
2.04878
1.9915
1.93632
1.88316
1.83194
1.78259
1.73504
1.68923
1.64509
1.60256
1.56158
1.5221
1.48405
1.44739
1.41207
1.37804
1.34524
1.31364
1.28319
1.25385
1.22558
1.19833
1.17207
1.14677
1.12238
1.09887
1.0762
1.05434
1.03327
1.01294
0.993324
0.974391
0.956112
0.938454
0.921389
0.904886
0.888916
0.873451
0.858462
0.843919
0.829797
0.816065
0.802697
0.789666
0.776943
0.764501
0.752312
0.740349
0.728579
0.718888
0.71137
0.704101
0.697056
0.690229
0.683604
0.677171
0.670918
0.664835
0.658912
0.653139
0.647508
0.642012
0.636646
0.63141
0.626308
0.621355
0.616587
0.612046
0.607873
0.604159
0.601435
0.599849
0.601242
0.589215
3.31147
3.03682
2.96994
2.8535
2.76583
2.67743
2.59567
2.51708
2.44205
2.36998
2.30073
2.23411
2.16999
2.10825
2.04878
1.9915
1.93632
1.88316
1.83194
1.78259
1.73504
1.68923
1.64509
1.60256
1.56158
1.5221
1.48405
1.44739
1.41207
1.37804
1.34524
1.31364
1.28319
1.25385
1.22558
1.19833
1.17207
1.14677
1.12238
1.09887
1.0762
1.05434
1.03327
1.01294
0.993323
0.974391
0.956111
0.938453
0.921388
0.904885
0.888915
0.87345
0.85846
0.843918
0.829795
0.816063
0.802695
0.789662
0.776939
0.764496
0.752307
0.740342
0.728572
0.71888
0.71136
0.70409
0.697045
0.690216
0.68359
0.677155
0.6709
0.664815
0.658889
0.653114
0.64748
0.64198
0.63661
0.631368
0.626259
0.621297
0.616516
0.611956
0.60775
0.603975
0.601123
0.599203
0.599327
0.587019
3.31142
3.03685
2.96995
2.8535
2.76584
2.67743
2.59567
2.51708
2.44205
2.36998
2.30073
2.23411
2.16999
2.10825
2.04878
1.9915
1.93632
1.88316
1.83194
1.78259
1.73504
1.68923
1.64509
1.60256
1.56158
1.5221
1.48405
1.44739
1.41207
1.37804
1.34524
1.31364
1.28319
1.25385
1.22558
1.19833
1.17207
1.14677
1.12238
1.09887
1.0762
1.05434
1.03327
1.01294
0.993323
0.974391
0.956111
0.938453
0.921387
0.904884
0.888914
0.873448
0.858458
0.843916
0.829792
0.81606
0.802691
0.789658
0.776934
0.764491
0.7523
0.740335
0.728563
0.71887
0.711349
0.704077
0.697031
0.6902
0.683572
0.677135
0.670878
0.664791
0.658862
0.653083
0.647445
0.641941
0.636566
0.631317
0.6262
0.621226
0.61643
0.611846
0.6076
0.603752
0.600742
0.598429
0.597184
0.584504
3.31137
3.03688
2.96996
2.8535
2.76584
2.67743
2.59567
2.51708
2.44205
2.36998
2.30073
2.23411
2.16999
2.10825
2.04878
1.9915
1.93632
1.88316
1.83194
1.78259
1.73504
1.68923
1.64509
1.60256
1.56158
1.5221
1.48405
1.44739
1.41207
1.37804
1.34524
1.31364
1.28319
1.25385
1.22558
1.19833
1.17207
1.14677
1.12238
1.09887
1.0762
1.05434
1.03327
1.01294
0.993323
0.97439
0.95611
0.938452
0.921386
0.904883
0.888913
0.873447
0.858456
0.843913
0.829789
0.816056
0.802687
0.789654
0.776928
0.764484
0.752292
0.740325
0.728552
0.718857
0.711335
0.704062
0.697014
0.690182
0.683551
0.677112
0.670853
0.664762
0.65883
0.653047
0.647404
0.641895
0.636513
0.631256
0.626129
0.621141
0.616325
0.611712
0.607418
0.603478
0.600278
0.597506
0.594829
0.581651
3.3113
3.03692
2.96998
2.8535
2.76584
2.67744
2.59567
2.51708
2.44205
2.36998
2.30073
2.23411
2.16999
2.10825
2.04878
1.9915
1.93632
1.88316
1.83194
1.78259
1.73504
1.68923
1.64509
1.60256
1.56158
1.5221
1.48405
1.44739
1.41207
1.37804
1.34524
1.31364
1.28319
1.25385
1.22558
1.19833
1.17207
1.14677
1.12238
1.09887
1.0762
1.05434
1.03327
1.01294
0.993322
0.97439
0.956109
0.938451
0.921385
0.904882
0.888911
0.873445
0.858454
0.84391
0.829786
0.816052
0.802682
0.789648
0.776922
0.764476
0.752283
0.740314
0.728539
0.718842
0.711319
0.704044
0.696993
0.690159
0.683526
0.677084
0.670821
0.664727
0.658791
0.653003
0.647355
0.641839
0.636449
0.631182
0.626043
0.621039
0.616199
0.61155
0.607195
0.603145
0.599714
0.596414
0.592296
0.578461
3.31122
3.03696
2.97
2.85351
2.76585
2.67744
2.59567
2.51708
2.44205
2.36998
2.30073
2.23411
2.16999
2.10825
2.04878
1.9915
1.93632
1.88316
1.83194
1.78259
1.73504
1.68923
1.64509
1.60256
1.56158
1.5221
1.48405
1.44739
1.41207
1.37804
1.34524
1.31364
1.28319
1.25385
1.22558
1.19833
1.17207
1.14677
1.12238
1.09887
1.0762
1.05434
1.03327
1.01294
0.993322
0.974389
0.956109
0.93845
0.921384
0.90488
0.888909
0.873442
0.858451
0.843907
0.829782
0.816047
0.802676
0.789641
0.776913
0.764466
0.752272
0.740301
0.728524
0.718825
0.711299
0.704022
0.696969
0.690132
0.683496
0.677051
0.670784
0.664686
0.658744
0.652951
0.647296
0.641772
0.636373
0.631094
0.62594
0.620915
0.616047
0.611353
0.606924
0.602739
0.599034
0.595133
0.589637
0.574966
3.31113
3.03702
2.97002
2.85351
2.76585
2.67744
2.59567
2.51709
2.44205
2.36998
2.30074
2.23411
2.16999
2.10825
2.04878
1.9915
1.93632
1.88316
1.83194
1.78259
1.73504
1.68923
1.64509
1.60256
1.56158
1.5221
1.48405
1.44739
1.41207
1.37804
1.34524
1.31364
1.28319
1.25385
1.22558
1.19833
1.17207
1.14677
1.12238
1.09887
1.0762
1.05434
1.03327
1.01294
0.993321
0.974388
0.956108
0.938449
0.921382
0.904878
0.888907
0.873439
0.858448
0.843903
0.829777
0.816041
0.802669
0.789633
0.776904
0.764455
0.752258
0.740286
0.728505
0.718804
0.711275
0.703996
0.69694
0.6901
0.68346
0.677011
0.67074
0.664636
0.658689
0.652889
0.647226
0.641692
0.636281
0.630989
0.625816
0.620767
0.615863
0.611115
0.606596
0.602248
0.598221
0.593654
0.586927
0.571253
3.31101
3.03709
2.97005
2.85352
2.76586
2.67744
2.59567
2.51709
2.44205
2.36998
2.30074
2.23411
2.16999
2.10825
2.04878
1.9915
1.93632
1.88316
1.83194
1.78259
1.73504
1.68923
1.64509
1.60256
1.56158
1.5221
1.48405
1.44739
1.41207
1.37804
1.34524
1.31364
1.28319
1.25385
1.22558
1.19833
1.17207
1.14677
1.12238
1.09886
1.0762
1.05434
1.03327
1.01294
0.99332
0.974387
0.956106
0.938447
0.92138
0.904876
0.888904
0.873436
0.858444
0.843898
0.829771
0.816034
0.802661
0.789623
0.776892
0.764441
0.752242
0.740267
0.728483
0.718778
0.711247
0.703965
0.696905
0.690061
0.683418
0.676963
0.670687
0.664577
0.658623
0.652814
0.647142
0.641597
0.636172
0.630863
0.625668
0.620589
0.615642
0.610828
0.606198
0.601657
0.597263
0.591981
0.584255
0.567486
3.31087
3.03717
2.97008
2.85352
2.76587
2.67745
2.59568
2.51709
2.44205
2.36998
2.30074
2.23411
2.16999
2.10825
2.04878
1.9915
1.93632
1.88316
1.83194
1.78259
1.73504
1.68923
1.64509
1.60256
1.56158
1.5221
1.48405
1.44739
1.41207
1.37804
1.34524
1.31364
1.28319
1.25385
1.22558
1.19833
1.17207
1.14677
1.12238
1.09886
1.0762
1.05434
1.03327
1.01294
0.993319
0.974386
0.956105
0.938446
0.921378
0.904873
0.888901
0.873432
0.858439
0.843892
0.829764
0.816026
0.802651
0.789611
0.776878
0.764425
0.752223
0.740244
0.728457
0.718748
0.711214
0.703928
0.696864
0.690016
0.683367
0.676907
0.670624
0.664506
0.658544
0.652726
0.647042
0.641484
0.636043
0.630713
0.625491
0.620376
0.615377
0.610483
0.60572
0.600956
0.596154
0.590147
0.581718
0.563916
3.3107
3.03726
2.97012
2.85353
2.76587
2.67745
2.59568
2.51709
2.44206
2.36998
2.30074
2.23411
2.16999
2.10825
2.04878
1.9915
1.93632
1.88316
1.83194
1.78259
1.73504
1.68923
1.64509
1.60256
1.56158
1.5221
1.48405
1.44739
1.41207
1.37804
1.34524
1.31364
1.28319
1.25385
1.22558
1.19833
1.17207
1.14677
1.12238
1.09886
1.0762
1.05434
1.03327
1.01293
0.993318
0.974385
0.956103
0.938444
0.921376
0.90487
0.888897
0.873427
0.858433
0.843885
0.829755
0.816016
0.802639
0.789597
0.776862
0.764406
0.752201
0.740218
0.728426
0.718713
0.711175
0.703884
0.696816
0.689962
0.683307
0.67684
0.67055
0.664424
0.658451
0.652622
0.646925
0.64135
0.63589
0.630536
0.625282
0.620124
0.615061
0.610071
0.605153
0.600137
0.5949
0.588223
0.57941
0.560866
3.3105
3.03737
2.97017
2.85354
2.76588
2.67745
2.59568
2.51709
2.44206
2.36998
2.30074
2.23412
2.16999
2.10825
2.04878
1.9915
1.93632
1.88316
1.83194
1.78259
1.73504
1.68923
1.64509
1.60256
1.56158
1.5221
1.48405
1.44739
1.41207
1.37804
1.34524
1.31364
1.28319
1.25385
1.22558
1.19833
1.17207
1.14677
1.12238
1.09886
1.0762
1.05434
1.03327
1.01293
0.993317
0.974383
0.956101
0.938441
0.921372
0.904866
0.888892
0.873421
0.858426
0.843877
0.829745
0.816004
0.802625
0.78958
0.776842
0.764383
0.752174
0.740187
0.72839
0.718671
0.711128
0.703833
0.696759
0.689898
0.683236
0.676762
0.670462
0.664326
0.658343
0.6525
0.646787
0.641194
0.635711
0.630328
0.625036
0.619826
0.614688
0.609588
0.604492
0.599206
0.593535
0.586321
0.577423
0.558729
3.31025
3.0375
2.97022
2.85355
2.7659
2.67746
2.59569
2.51709
2.44206
2.36999
2.30074
2.23412
2.16999
2.10825
2.04878
1.9915
1.93632
1.88316
1.83194
1.78259
1.73504
1.68923
1.64509
1.60256
1.56158
1.5221
1.48405
1.44739
1.41207
1.37804
1.34524
1.31364
1.28319
1.25385
1.22558
1.19833
1.17207
1.14677
1.12238
1.09886
1.0762
1.05434
1.03326
1.01293
0.993316
0.974381
0.956099
0.938438
0.921369
0.904861
0.888886
0.873415
0.858418
0.843867
0.829734
0.81599
0.802609
0.789561
0.77682
0.764357
0.752143
0.740151
0.728347
0.718623
0.711074
0.703773
0.696692
0.689824
0.683155
0.676671
0.670361
0.664214
0.658217
0.652358
0.646628
0.641013
0.635503
0.630086
0.624751
0.619481
0.614256
0.609031
0.603744
0.598189
0.592126
0.584595
0.575864
0.557868
3.30994
3.03766
2.97029
2.85357
2.76591
2.67746
2.59569
2.5171
2.44206
2.36999
2.30074
2.23412
2.16999
2.10825
2.04878
1.9915
1.93632
1.88316
1.83194
1.78259
1.73504
1.68923
1.64509
1.60256
1.56158
1.5221
1.48405
1.44739
1.41207
1.37804
1.34524
1.31364
1.28319
1.25385
1.22558
1.19833
1.17207
1.14677
1.12238
1.09886
1.0762
1.05434
1.03326
1.01293
0.993314
0.974379
0.956096
0.938435
0.921365
0.904856
0.88888
0.873407
0.858408
0.843856
0.82972
0.815974
0.80259
0.789539
0.776794
0.764326
0.752107
0.740108
0.728298
0.718566
0.711012
0.703703
0.696616
0.689739
0.68306
0.676566
0.670245
0.664084
0.658072
0.652196
0.646445
0.640806
0.635266
0.629811
0.624426
0.619088
0.613769
0.608412
0.602935
0.59714
0.590787
0.58322
0.574872
0.558464
3.30957
3.03784
2.97036
2.85358
2.76593
2.67747
2.5957
2.5171
2.44206
2.36999
2.30074
2.23412
2.16999
2.10825
2.04878
1.9915
1.93632
1.88316
1.83194
1.78259
1.73504
1.68923
1.64509
1.60256
1.56158
1.5221
1.48405
1.44739
1.41207
1.37804
1.34524
1.31364
1.28319
1.25385
1.22558
1.19833
1.17207
1.14677
1.12237
1.09886
1.0762
1.05434
1.03326
1.01293
0.993312
0.974377
0.956093
0.938431
0.92136
0.90485
0.888873
0.873398
0.858398
0.843843
0.829705
0.815956
0.802568
0.789514
0.776764
0.764291
0.752066
0.740061
0.728242
0.718502
0.710941
0.703625
0.696529
0.689643
0.682954
0.676448
0.670114
0.663939
0.65791
0.652015
0.646242
0.640576
0.635003
0.629507
0.624068
0.618659
0.613245
0.607762
0.602123
0.596159
0.589684
0.582376
0.574613
0.560454
3.30912
3.03806
2.97044
2.85361
2.76595
2.67748
2.5957
2.5171
2.44206
2.36999
2.30074
2.23412
2.16999
2.10825
2.04878
1.9915
1.93632
1.88316
1.83194
1.78259
1.73504
1.68923
1.64509
1.60256
1.56158
1.5221
1.48405
1.44739
1.41207
1.37804
1.34524
1.31364
1.28319
1.25385
1.22558
1.19833
1.17207
1.14677
1.12237
1.09886
1.07619
1.05434
1.03326
1.01293
0.99331
0.974374
0.95609
0.938427
0.921354
0.904844
0.888865
0.873388
0.858386
0.843828
0.829688
0.815936
0.802544
0.789485
0.77673
0.764252
0.75202
0.740007
0.72818
0.718431
0.710862
0.703538
0.696432
0.689537
0.682836
0.676319
0.669971
0.66378
0.657734
0.651819
0.646022
0.640329
0.634723
0.629186
0.623695
0.618221
0.612723
0.607145
0.601408
0.595396
0.589017
0.582234
0.575248
0.563592
3.30857
3.03832
2.97053
2.85364
2.76597
2.67749
2.59571
2.51711
2.44207
2.36999
2.30074
2.23412
2.16999
2.10825
2.04878
1.9915
1.93632
1.88316
1.83194
1.78259
1.73504
1.68923
1.64509
1.60256
1.56158
1.5221
1.48405
1.44739
1.41207
1.37804
1.34524
1.31364
1.28319
1.25385
1.22558
1.19833
1.17207
1.14677
1.12237
1.09886
1.07619
1.05434
1.03326
1.01293
0.993308
0.974371
0.956086
0.938422
0.921349
0.904836
0.888856
0.873377
0.858373
0.843813
0.829669
0.815913
0.802518
0.789454
0.776694
0.764209
0.751971
0.739949
0.728112
0.718355
0.710778
0.703444
0.69633
0.689424
0.682713
0.676183
0.669821
0.663616
0.657553
0.651619
0.645801
0.640083
0.634448
0.628877
0.623346
0.617826
0.612283
0.606671
0.600943
0.595047
0.589
0.582944
0.576881
0.567578
3.30792
3.03864
2.97063
2.85367
2.76599
2.6775
2.59572
2.51711
2.44207
2.36999
2.30074
2.23412
2.16999
2.10825
2.04878
1.9915
1.93632
1.88316
1.83194
1.78259
1.73504
1.68923
1.64509
1.60256
1.56158
1.5221
1.48405
1.44739
1.41207
1.37804
1.34524
1.31364
1.28319
1.25385
1.22558
1.19833
1.17207
1.14677
1.12237
1.09886
1.07619
1.05434
1.03326
1.01292
0.993305
0.974368
0.956082
0.938417
0.921342
0.904829
0.888846
0.873366
0.858359
0.843796
0.82965
0.81589
0.80249
0.789422
0.776656
0.764165
0.75192
0.73989
0.728044
0.718278
0.710693
0.703351
0.696228
0.689313
0.682592
0.676051
0.669678
0.663461
0.657385
0.651438
0.645605
0.639872
0.634221
0.628635
0.623093
0.617573
0.612051
0.606506
0.600931
0.595338
0.589832
0.584621
0.579539
0.572198
3.30715
3.03904
2.97073
2.85372
2.76601
2.67752
2.59573
2.51712
2.44207
2.37
2.30074
2.23412
2.16999
2.10825
2.04878
1.9915
1.93632
1.88316
1.83194
1.78259
1.73504
1.68923
1.64509
1.60256
1.56158
1.5221
1.48405
1.44739
1.41207
1.37804
1.34524
1.31364
1.28319
1.25385
1.22558
1.19833
1.17207
1.14677
1.12237
1.09886
1.07619
1.05434
1.03326
1.01292
0.993303
0.974365
0.956078
0.938412
0.921336
0.904821
0.888838
0.873355
0.858346
0.843781
0.829631
0.815868
0.802465
0.789392
0.776621
0.764124
0.751872
0.739836
0.727982
0.718208
0.710618
0.70327
0.696141
0.689219
0.682492
0.675945
0.669567
0.663345
0.657266
0.651317
0.645486
0.639758
0.634121
0.628559
0.623059
0.617612
0.612213
0.606869
0.60161
0.596497
0.591677
0.58734
0.583199
0.577375
3.30627
3.03956
2.97083
2.85378
2.76604
2.67754
2.59573
2.51712
2.44208
2.37
2.30075
2.23412
2.17
2.10825
2.04878
1.9915
1.93632
1.88316
1.83194
1.78259
1.73504
1.68923
1.64509
1.60256
1.56158
1.5221
1.48405
1.44739
1.41207
1.37804
1.34524
1.31364
1.28319
1.25385
1.22558
1.19833
1.17207
1.14676
1.12237
1.09886
1.07619
1.05433
1.03326
1.01292
0.993301
0.974362
0.956075
0.938408
0.921332
0.904816
0.888831
0.873347
0.858336
0.843769
0.829617
0.815852
0.802445
0.789369
0.776595
0.764095
0.751839
0.739798
0.727941
0.718164
0.710572
0.703222
0.696093
0.689172
0.682447
0.675904
0.669533
0.663322
0.657258
0.651332
0.645532
0.639849
0.634274
0.6288
0.623427
0.618158
0.61301
0.608016
0.603225
0.598723
0.594653
0.591144
0.587832
0.583141
3.30528
3.04024
2.97093
2.85386
2.76606
2.67756
2.59574
2.51713
2.44208
2.37
2.30075
2.23412
2.17
2.10825
2.04878
1.9915
1.93632
1.88316
1.83194
1.78259
1.73504
1.68923
1.64509
1.60256
1.56158
1.5221
1.48405
1.44739
1.41207
1.37804
1.34524
1.31364
1.28319
1.25385
1.22558
1.19833
1.17207
1.14676
1.12237
1.09886
1.07619
1.05433
1.03325
1.01292
0.9933
0.974362
0.956074
0.938407
0.92133
0.904814
0.888829
0.873345
0.858333
0.843766
0.829613
0.815848
0.802441
0.789364
0.776591
0.764091
0.751837
0.739798
0.727946
0.718174
0.710589
0.703247
0.696129
0.689223
0.682516
0.675997
0.669656
0.663482
0.657468
0.651605
0.645888
0.640311
0.634875
0.629582
0.624444
0.61948
0.614719
0.610205
0.605995
0.602166
0.598831
0.596053
0.593432
0.589591
3.30424
3.04116
2.97102
2.85398
2.76608
2.67759
2.59575
2.51714
2.44209
2.37
2.30075
2.23412
2.17
2.10825
2.04878
1.9915
1.93632
1.88316
1.83194
1.78259
1.73504
1.68923
1.64509
1.60256
1.56158
1.5221
1.48405
1.44739
1.41207
1.37804
1.34524
1.31364
1.28319
1.25385
1.22558
1.19833
1.17207
1.14676
1.12237
1.09886
1.07619
1.05434
1.03326
1.01292
0.993302
0.974364
0.956077
0.938411
0.921336
0.904821
0.888837
0.873354
0.858345
0.84378
0.829631
0.815869
0.802467
0.789397
0.776631
0.76414
0.751898
0.739875
0.728042
0.718293
0.710729
0.703413
0.696327
0.689459
0.682798
0.676336
0.670064
0.663975
0.658064
0.652329
0.646769
0.641387
0.63619
0.631191
0.626409
0.621871
0.61761
0.613666
0.610087
0.606924
0.604252
0.602082
0.600018
0.59683
3.30322
3.0424
2.9711
2.85416
2.76609
2.67762
2.59576
2.51715
2.44209
2.37001
2.30075
2.23413
2.17
2.10825
2.04878
1.9915
1.93632
1.88316
1.83194
1.78259
1.73504
1.68923
1.64509
1.60256
1.56158
1.5221
1.48405
1.44739
1.41207
1.37804
1.34524
1.31364
1.28319
1.25385
1.22558
1.19833
1.17207
1.14677
1.12237
1.09886
1.07619
1.05434
1.03326
1.01293
0.993309
0.974373
0.956089
0.938426
0.921353
0.904842
0.888863
0.873387
0.858385
0.843829
0.82969
0.81594
0.802552
0.789499
0.776753
0.764288
0.752076
0.740091
0.728307
0.718608
0.711093
0.703832
0.696813
0.690024
0.683455
0.677102
0.670959
0.665023
0.659295
0.653775
0.648471
0.643389
0.638544
0.633951
0.629633
0.625612
0.621916
0.618573
0.615608
0.613049
0.610935
0.609246
0.607619
0.60496
3.30233
3.04407
2.97118
2.85442
2.76609
2.67768
2.59578
2.51716
2.4421
2.37001
2.30076
2.23413
2.17
2.10825
2.04878
1.9915
1.93632
1.88316
1.83194
1.78259
1.73504
1.68923
1.64509
1.60256
1.56158
1.5221
1.48405
1.44739
1.41207
1.37804
1.34524
1.31364
1.28319
1.25385
1.22558
1.19833
1.17207
1.14677
1.12238
1.09887
1.0762
1.05435
1.03327
1.01294
0.993325
0.974394
0.956115
0.938458
0.921394
0.904892
0.888925
0.873462
0.858476
0.843938
0.829821
0.816098
0.802741
0.789724
0.777022
0.764609
0.75246
0.740552
0.728863
0.719262
0.711838
0.704682
0.697784
0.691134
0.684726
0.678557
0.672627
0.666936
0.661487
0.656288
0.651345
0.64667
0.642276
0.638176
0.634387
0.630922
0.627797
0.625022
0.622604
0.62055
0.618873
0.617539
0.616245
0.614035
3.3017
3.04623
2.97129
2.85479
2.76608
2.67775
2.59579
2.51718
2.44211
2.37002
2.30076
2.23413
2.17
2.10825
2.04879
1.9915
1.93632
1.88316
1.83194
1.78259
1.73504
1.68923
1.64509
1.60256
1.56158
1.5221
1.48405
1.44739
1.41207
1.37804
1.34524
1.31364
1.28319
1.25385
1.22558
1.19833
1.17208
1.14677
1.12238
1.09887
1.07621
1.05436
1.03329
1.01296
0.993357
0.974434
0.956165
0.938521
0.921473
0.90499
0.889044
0.873608
0.858652
0.844151
0.830077
0.816404
0.803106
0.790158
0.777538
0.765221
0.753188
0.741419
0.729899
0.720468
0.7132
0.70622
0.699521
0.693094
0.686936
0.681048
0.675431
0.670088
0.665024
0.660244
0.655756
0.651568
0.647686
0.644117
0.640868
0.637942
0.635338
0.633056
0.631087
0.629425
0.628069
0.626982
0.625932
0.624127
3.30141
3.04883
2.97144
2.8553
2.76608
2.67785
2.59581
2.51721
2.44212
2.37003
2.30076
2.23413
2.17
2.10826
2.04879
1.9915
1.93632
1.88316
1.83194
1.78259
1.73504
1.68923
1.64509
1.60256
1.56158
1.5221
1.48405
1.44739
1.41207
1.37804
1.34524
1.31364
1.28319
1.25385
1.22558
1.19834
1.17208
1.14678
1.12239
1.09889
1.07623
1.05439
1.03332
1.01301
0.993414
0.974506
0.956257
0.938636
0.921615
0.905165
0.889259
0.873869
0.858969
0.844533
0.830534
0.816949
0.803755
0.790928
0.778449
0.766298
0.75446
0.742921
0.731676
0.722519
0.715495
0.708784
0.702379
0.696274
0.690469
0.684962
0.679756
0.674852
0.670252
0.665958
0.661973
0.658296
0.654927
0.651864
0.649103
0.646637
0.644458
0.642553
0.640911
0.639516
0.63836
0.637411
0.63651
0.635072
3.30147
3.05158
2.9717
2.8559
2.7661
2.67797
2.59584
2.51724
2.44213
2.37004
2.30077
2.23414
2.17001
2.10826
2.04879
1.9915
1.93632
1.88316
1.83194
1.78259
1.73504
1.68923
1.64509
1.60256
1.56158
1.5221
1.48405
1.44739
1.41207
1.37804
1.34524
1.31364
1.2832
1.25386
1.22559
1.19835
1.17209
1.14679
1.12241
1.09891
1.07626
1.05443
1.03338
1.01308
0.993509
0.974628
0.95641
0.938827
0.921853
0.905459
0.889619
0.874307
0.859499
0.845169
0.831296
0.817857
0.804831
0.792199
0.779946
0.768058
0.756524
0.745338
0.734504
0.725746
0.719072
0.712736
0.70673
0.701048
0.695688
0.690647
0.685924
0.681515
0.677418
0.673629
0.670141
0.66695
0.664046
0.661422
0.659065
0.656964
0.655106
0.653475
0.652058
0.650837
0.649802
0.648929
0.648127
0.647044
3.3018
3.05369
2.97209
2.85639
2.76616
2.67807
2.59588
2.51727
2.44215
2.37005
2.30078
2.23414
2.17001
2.10826
2.04879
1.99151
1.93632
1.88316
1.83194
1.78259
1.73504
1.68923
1.64509
1.60256
1.56158
1.5221
1.48405
1.44739
1.41207
1.37804
1.34525
1.31365
1.2832
1.25386
1.22559
1.19835
1.17211
1.14681
1.12244
1.09895
1.07631
1.05449
1.03346
1.01319
0.99364
0.974794
0.95662
0.93909
0.922179
0.905861
0.890111
0.874905
0.860221
0.846037
0.832332
0.819087
0.806284
0.79391
0.78195
0.770396
0.759243
0.74849
0.738143
0.729845
0.723559
0.717625
0.712033
0.706777
0.701848
0.697241
0.69295
0.688966
0.685282
0.681887
0.678772
0.675925
0.673334
0.670987
0.66887
0.666969
0.665268
0.663755
0.662413
0.661228
0.660189
0.659278
0.658453
0.657557
3.302
3.05484
2.97238
2.85666
2.76621
2.67813
2.5959
2.51728
2.44216
2.37006
2.30078
2.23415
2.17001
2.10826
2.04879
1.99151
1.93632
1.88316
1.83194
1.78259
1.73504
1.68923
1.64509
1.60256
1.56158
1.5221
1.48405
1.44739
1.41207
1.37804
1.34525
1.31365
1.2832
1.25387
1.2256
1.19837
1.17212
1.14683
1.12247
1.09899
1.07636
1.05456
1.03355
1.0133
0.993785
0.974979
0.956853
0.939383
0.922542
0.906308
0.890658
0.87557
0.861023
0.846997
0.833476
0.820441
0.807879
0.795777
0.784126
0.772918
0.762151
0.751827
0.741951
0.734083
0.728151
0.722576
0.717344
0.712445
0.707871
0.70361
0.699654
0.695989
0.692604
0.689486
0.686623
0.684002
0.681607
0.679426
0.677444
0.675648
0.674022
0.672555
0.671232
0.670041
0.668971
0.668009
0.667139
0.666344
3.30194
3.055
2.97247
2.85669
2.76624
2.67814
2.59591
2.51729
2.44216
2.37006
2.30078
2.23415
2.17001
2.10826
2.04879
1.99151
1.93632
1.88316
1.83194
1.78259
1.73504
1.68923
1.64509
1.60256
1.56158
1.5221
1.48405
1.44739
1.41207
1.37804
1.34525
1.31365
1.28321
1.25387
1.22561
1.19838
1.17214
1.14685
1.1225
1.09903
1.07641
1.05463
1.03364
1.01342
0.993937
0.975172
0.957097
0.939687
0.92292
0.906773
0.891226
0.876259
0.861853
0.84799
0.834656
0.821835
0.809514
0.797684
0.786336
0.775464
0.765066
0.755142
0.745695
0.738209
0.732585
0.727314
0.72238
0.717771
0.713476
0.709481
0.705772
0.702336
0.699159
0.696226
0.693524
0.691038
0.688755
0.68666
0.684741
0.682984
0.681376
0.679907
0.678564
0.677336
0.676213
0.675186
0.674257
0.673488
3.30164
3.05418
2.97237
2.85648
2.76624
2.6781
2.5959
2.51728
2.44216
2.37006
2.30078
2.23415
2.17001
2.10826
2.04879
1.99151
1.93632
1.88316
1.83194
1.78259
1.73504
1.68923
1.64509
1.60256
1.56158
1.5221
1.48405
1.4474
1.41207
1.37804
1.34525
1.31365
1.28321
1.25388
1.22562
1.19839
1.17215
1.14688
1.12252
1.09906
1.07646
1.05469
1.03373
1.01353
0.994083
0.975357
0.95733
0.939979
0.923281
0.907218
0.891769
0.876917
0.862644
0.848935
0.835777
0.823155
0.811058
0.799477
0.788404
0.777833
0.767759
0.758182
0.749099
0.741928
0.736553
0.731522
0.726819
0.722429
0.71834
0.714536
0.711
0.707718
0.704675
0.701857
0.699248
0.696836
0.694607
0.692548
0.690646
0.688889
0.687267
0.685768
0.684384
0.683104
0.681918
0.680821
0.679824
0.679029
3.30124
3.05241
2.97217
2.85605
2.76624
2.67801
2.59587
2.51725
2.44214
2.37005
2.30078
2.23414
2.17001
2.10826
2.04879
1.99151
1.93632
1.88316
1.83194
1.78259
1.73504
1.68923
1.64509
1.60256
1.56158
1.5221
1.48405
1.4474
1.41207
1.37804
1.34525
1.31366
1.28321
1.25388
1.22562
1.1984
1.17217
1.14689
1.12255
1.0991
1.07651
1.05475
1.0338
1.01363
0.994211
0.97552
0.957536
0.940236
0.9236
0.907609
0.892247
0.877495
0.863338
0.849763
0.836756
0.824305
0.8124
0.80103
0.790188
0.779866
0.770057
0.760758
0.751962
0.745035
0.739848
0.734997
0.730463
0.726231
0.722285
0.71861
0.715188
0.712005
0.709046
0.706296
0.703741
0.701369
0.699165
0.697119
0.69522
0.693455
0.691816
0.690293
0.688877
0.68756
0.686333
0.68519
0.684149
0.683322
3.30106
3.05004
2.97205
2.85552
2.76625
2.6779
2.59585
2.51723
2.44213
2.37004
2.30077
2.23414
2.17001
2.10826
2.04879
1.99151
1.93632
1.88316
1.83194
1.78259
1.73504
1.68923
1.64509
1.60256
1.56158
1.5221
1.48405
1.4474
1.41208
1.37804
1.34525
1.31366
1.28322
1.25389
1.22563
1.1984
1.17217
1.14691
1.12257
1.09912
1.07654
1.0548
1.03386
1.0137
0.994304
0.975639
0.957685
0.940422
0.92383
0.907893
0.892592
0.877912
0.863839
0.850359
0.837459
0.825129
0.813358
0.802135
0.791451
0.781299
0.771668
0.762553
0.753942
0.747167
0.742099
0.737357
0.732923
0.728782
0.724918
0.721313
0.717951
0.714817
0.711896
0.709173
0.706634
0.704267
0.70206
0.700001
0.698079
0.696284
0.694606
0.693037
0.691569
0.690194
0.688901
0.687689
0.686586
0.685722
3.30122
3.04774
2.97197
2.85506
2.76627
2.67781
2.59584
2.5172
2.44212
2.37003
2.30077
2.23414
2.17001
2.10826
2.04879
1.9915
1.93632
1.88316
1.83194
1.78259
1.73504
1.68923
1.64509
1.60256
1.56158
1.5221
1.48405
1.4474
1.41208
1.37804
1.34525
1.31366
1.28322
1.25389
1.22563
1.19841
1.17218
1.14691
1.12258
1.09914
1.07656
1.05482
1.03389
1.01375
0.994361
0.97571
0.957775
0.940535
0.92397
0.908064
0.892801
0.878164
0.864141
0.850718
0.837883
0.825625
0.813933
0.802796
0.792205
0.782151
0.772622
0.76361
0.755103
0.748412
0.743405
0.73872
0.734338
0.730244
0.72642
0.72285
0.719516
0.716404
0.713499
0.710787
0.708255
0.705889
0.70368
0.701616
0.699686
0.697882
0.696194
0.694614
0.693136
0.69175
0.690449
0.689228
0.688131
0.687312
3.30171
3.04579
2.97192
2.85471
2.76629
2.67774
2.59583
2.51719
2.44212
2.37002
2.30076
2.23413
2.17
2.10826
2.04879
1.9915
1.93632
1.88316
1.83194
1.78259
1.73504
1.68923
1.64509
1.60256
1.56158
1.5221
1.48405
1.4474
1.41208
1.37804
1.34525
1.31366
1.28322
1.25389
1.22563
1.19841
1.17218
1.14692
1.12258
1.09914
1.07657
1.05484
1.03391
1.01377
0.994393
0.975751
0.957827
0.940599
0.92405
0.908162
0.892919
0.878308
0.864313
0.850922
0.838123
0.825905
0.814257
0.803168
0.792628
0.782626
0.773152
0.764195
0.755742
0.749094
0.744118
0.73946
0.735104
0.731032
0.727226
0.723671
0.720348
0.717244
0.714343
0.711631
0.709097
0.706727
0.704509
0.702434
0.700492
0.698673
0.696968
0.695369
0.69387
0.692463
0.691138
0.689893
0.688772
0.687922