/*--------------------------------*- C++ -*----------------------------------*\
| =========                 |                                                 |
| \\      /  F ield         | OpenFOAM: The Open Source CFD Toolbox           |
|  \\    /   O peration     | Version:  2506                                  |
|   \\  /    A nd           | Website:  www.openfoam.com                      |
|    \\/     M anipulation  |                                                 |
\*---------------------------------------------------------------------------*/
FoamFile
{
    version     2.0;
    format      ascii;
    arch        "LSB;label=32;scalar=64";
    class       surfaceScalarField;
    location    "2000";
    object      phi;
}
// * * * * * * * * * * * * * * * * * * * * * * * * * * * * * * * * * * * * * //

dimensions      [0 3 -1 0 0 0 0];

oriented        oriented;

internalField   nonuniform List<scalar> 
40747
(
2.37954e-07
9.87086e-08
1.2187e-07
1.16084e-07
2.88099e-07
2.1788e-07
2.68878e-07
1.41091e-07
3.48902e-07
3.61664e-07
4.46117e-07
1.71663e-07
4.2267e-07
5.3501e-07
6.59667e-07
2.0912e-07
5.12234e-07
7.43792e-07
9.16772e-07
2.55129e-07
6.21067e-07
9.94959e-07
1.22603e-06
3.11807e-07
7.53444e-07
1.29668e-06
1.59761e-06
3.81865e-07
9.14644e-07
1.6585e-06
2.04346e-06
4.68796e-07
1.11121e-06
2.09146e-06
2.57754e-06
5.77137e-07
1.35128e-06
2.60821e-06
3.216e-06
7.12819e-07
1.64502e-06
3.22299e-06
3.97736e-06
8.83658e-07
2.00518e-06
3.95156e-06
4.88252e-06
1.10002e-06
2.44781e-06
4.81084e-06
5.9546e-06
1.37572e-06
2.99324e-06
5.81828e-06
7.21853e-06
1.72931e-06
3.66729e-06
6.99073e-06
8.70009e-06
2.18573e-06
4.50283e-06
8.34265e-06
1.04243e-05
2.7786e-06
5.54187e-06
9.88344e-06
1.24129e-05
3.55329e-06
6.83804e-06
1.16135e-05
1.46801e-05
4.57081e-06
8.45972e-06
1.35188e-05
1.7227e-05
5.91288e-06
1.04936e-05
1.55641e-05
2.00327e-05
7.68793e-06
1.30488e-05
1.76839e-05
2.30435e-05
1.0038e-05
1.62604e-05
1.97735e-05
2.61579e-05
1.31459e-05
2.02923e-05
2.16795e-05
2.92098e-05
1.72405e-05
2.53382e-05
2.31954e-05
3.19499e-05
2.2598e-05
3.1618e-05
2.40634e-05
3.40323e-05
2.95357e-05
3.93713e-05
2.39914e-05
3.50121e-05
3.83915e-05
4.88484e-05
2.26844e-05
3.43694e-05
4.9491e-05
6.03086e-05
1.9888e-05
3.15703e-05
6.31076e-05
7.40394e-05
1.54228e-05
2.6165e-05
7.94446e-05
9.04194e-05
9.16903e-06
1.79011e-05
9.86833e-05
8.71141e-05
2.69996e-06
9.25091e-06
9.57641e-05
8.72907e-05
-3.94569e-06
3.57298e-07
9.61842e-05
8.72345e-05
-1.05352e-05
-8.50006e-06
9.60917e-05
8.69301e-05
-1.68202e-05
-1.70442e-05
9.54741e-05
8.73266e-05
-2.25344e-05
-2.48972e-05
9.51795e-05
7.17869e-05
-2.64283e-05
-3.00984e-05
7.69881e-05
5.87038e-05
-2.86522e-05
-3.28961e-05
6.15014e-05
4.77469e-05
-2.94138e-05
-3.36931e-05
4.85438e-05
3.86541e-05
-2.8981e-05
-3.29619e-05
3.79229e-05
3.11852e-05
-2.76501e-05
-3.11666e-05
2.93899e-05
2.51083e-05
-2.57083e-05
-2.87105e-05
2.26521e-05
2.02019e-05
-2.34075e-05
-2.59137e-05
1.74051e-05
1.62623e-05
-2.09497e-05
-2.30125e-05
1.3361e-05
1.31092e-05
-1.84858e-05
-2.01694e-05
1.0266e-05
1.0589e-05
-1.61196e-05
-1.74878e-05
7.90736e-06
8.57415e-06
-1.39165e-05
-1.50266e-05
6.11294e-06
6.96104e-06
-1.19119e-05
-1.28129e-05
4.74736e-06
5.66662e-06
-1.012e-05
-1.08523e-05
3.70598e-06
4.62498e-06
-8.54037e-06
-9.13639e-06
2.90912e-06
3.78416e-06
-7.16291e-06
-7.64882e-06
2.29659e-06
3.10326e-06
-5.97225e-06
-6.36881e-06
1.82325e-06
2.55014e-06
-4.95029e-06
-5.27401e-06
1.45534e-06
2.09946e-06
-4.07813e-06
-4.34218e-06
1.16763e-06
1.73123e-06
-3.33729e-06
-3.55219e-06
9.41237e-07
1.4296e-06
-2.71039e-06
-2.88461e-06
7.62021e-07
1.18197e-06
-2.18156e-06
-2.32196e-06
6.19321e-07
9.78253e-07
-1.73661e-06
-1.84879e-06
5.05078e-07
8.10376e-07
-1.36303e-06
-1.45157e-06
4.13155e-07
6.71822e-07
-1.04992e-06
-1.1186e-06
3.38853e-07
5.57315e-07
-7.87881e-07
-8.3983e-07
2.78546e-07
4.62579e-07
-5.68841e-07
-6.06672e-07
2.29421e-07
3.84121e-07
-3.85928e-07
-4.11825e-07
1.89274e-07
3.19095e-07
-2.33308e-07
-2.49105e-07
1.56376e-07
2.65159e-07
-1.06051e-07
-1.13296e-07
1.2935e-07
2.20399e-07
1.07103e-07
3.53187e-10
1.15731e-07
2.97456e-10
5.5731e-11
2.7528e-10
2.21761e-11
2.71676e-10
3.60405e-12
2.67177e-10
4.49924e-12
2.65534e-10
1.64283e-12
2.64259e-10
1.2748e-12
2.63586e-10
6.73276e-13
2.6314e-10
4.45521e-13
2.62872e-10
2.67933e-13
2.62699e-10
1.73512e-13
2.62588e-10
1.10529e-13
2.62516e-10
7.25664e-14
2.62468e-10
4.79173e-14
2.62436e-10
3.21967e-14
2.62414e-10
2.18733e-14
2.62399e-10
1.50618e-14
2.62388e-10
1.04917e-14
2.62381e-10
7.39298e-15
2.62376e-10
5.26276e-15
2.62372e-10
3.77858e-15
2.62369e-10
2.72692e-15
2.62367e-10
1.96469e-15
2.62366e-10
1.3928e-15
2.62365e-10
9.39555e-16
2.62364e-10
5.49365e-16
2.62364e-10
1.74881e-16
2.62364e-10
-2.29001e-16
2.62365e-10
-7.09997e-16
2.62366e-10
-1.32232e-15
2.62368e-10
-2.13053e-15
2.62372e-10
-3.21325e-15
2.62376e-10
-4.66672e-15
2.62383e-10
-6.60831e-15
2.62392e-10
-9.17984e-15
2.62405e-10
-1.25507e-14
2.62422e-10
-1.69206e-14
2.62444e-10
-2.25219e-14
2.62474e-10
-2.96209e-14
2.62512e-10
-3.85188e-14
2.62562e-10
-4.95514e-14
2.62625e-10
-6.30882e-14
2.62704e-10
-7.95296e-14
2.62804e-10
-9.93046e-14
2.62927e-10
-1.22866e-13
2.63077e-10
-1.50688e-13
2.63261e-10
-1.83259e-13
2.63482e-10
-2.2108e-13
2.63746e-10
-2.6466e-13
2.64061e-10
-3.14514e-13
2.64432e-10
-3.71167e-13
2.64867e-10
-4.35158e-13
2.65374e-10
-5.07045e-13
2.65962e-10
-5.87428e-13
2.66639e-10
-6.76965e-13
2.67415e-10
-7.76417e-13
2.68302e-10
-8.86685e-13
2.69311e-10
-1.00887e-12
2.70455e-10
-1.14442e-12
2.7175e-10
-1.295e-12
2.73214e-10
-1.46359e-12
2.74866e-10
-1.65205e-12
2.76734e-10
-1.86869e-12
2.78105e-10
-1.37075e-12
2.79555e-10
-1.44951e-12
2.81086e-10
-1.53134e-12
2.82706e-10
-1.62003e-12
2.84418e-10
-1.71249e-12
2.8623e-10
-1.81165e-12
2.88148e-10
-1.918e-12
2.90182e-10
-2.03346e-12
2.92341e-10
-2.15981e-12
2.94641e-10
-2.29945e-12
2.97096e-10
-2.45531e-12
2.99727e-10
-2.63123e-12
3.0256e-10
-2.83272e-12
3.05628e-10
-3.06765e-12
3.08977e-10
-3.34965e-12
3.12677e-10
-3.69964e-12
3.16838e-10
-4.16053e-12
3.21636e-10
-4.79805e-12
3.27409e-10
-5.77299e-12
3.34749e-10
-7.34079e-12
3.45027e-10
-1.02772e-11
3.61352e-10
-1.6325e-11
3.9622e-10
-3.48683e-11
5.15533e-10
-1.19313e-10
-7.61015e-09
8.12568e-09
1.37027e-09
2.55451e-07
1.15456e-09
2.71447e-10
1.06846e-09
1.08269e-10
1.0545e-09
1.75705e-11
1.03704e-09
2.19607e-11
1.03066e-09
8.01466e-12
1.02572e-09
6.22104e-12
1.02311e-09
3.28507e-12
1.02138e-09
2.17399e-12
1.02034e-09
1.30736e-12
1.01966e-09
8.46659e-13
1.01924e-09
5.39323e-13
1.01895e-09
3.54089e-13
1.01877e-09
2.33812e-13
1.01864e-09
1.57103e-13
1.01856e-09
1.0673e-13
1.0185e-09
7.34935e-14
1.01846e-09
5.11933e-14
1.01843e-09
3.60733e-14
1.01841e-09
2.56788e-14
1.0184e-09
1.84367e-14
1.01839e-09
1.33051e-14
1.01838e-09
9.58585e-15
1.01837e-09
6.79533e-15
1.01837e-09
4.58383e-15
1.01837e-09
2.68007e-15
1.01837e-09
8.53096e-16
1.01837e-09
-1.11723e-15
1.01837e-09
-3.46364e-15
1.01837e-09
-6.45061e-15
1.01838e-09
-1.0393e-14
1.0184e-09
-1.56744e-14
1.01841e-09
-2.27642e-14
1.01844e-09
-3.2235e-14
1.01847e-09
-4.47784e-14
1.01852e-09
-6.12209e-14
1.01859e-09
-8.25366e-14
1.01868e-09
-1.09859e-13
1.01879e-09
-1.44486e-13
1.01894e-09
-1.87888e-13
1.01913e-09
-2.41704e-13
1.01938e-09
-3.07733e-13
1.01969e-09
-3.87931e-13
1.02007e-09
-4.84389e-13
1.02055e-09
-5.99319e-13
1.02113e-09
-7.35028e-13
1.02184e-09
-8.93902e-13
1.0227e-09
-1.07838e-12
1.02373e-09
-1.29095e-12
1.02495e-09
-1.53413e-12
1.02639e-09
-1.81047e-12
1.02807e-09
-2.1226e-12
1.03004e-09
-2.47324e-12
1.03232e-09
-2.86532e-12
1.03494e-09
-3.30205e-12
1.03795e-09
-3.78714e-12
1.04139e-09
-4.32498e-12
1.0453e-09
-4.92093e-12
1.04974e-09
-5.5821e-12
1.05476e-09
-6.31653e-12
1.06044e-09
-7.13882e-12
1.06684e-09
-8.05794e-12
1.07409e-09
-9.11461e-12
1.0794e-09
-6.68551e-12
1.08502e-09
-7.07003e-12
1.09096e-09
-7.46891e-12
1.09724e-09
-7.90147e-12
1.10388e-09
-8.35235e-12
1.11091e-09
-8.83595e-12
1.11834e-09
-9.35458e-12
1.12623e-09
-9.91768e-12
1.1346e-09
-1.05339e-11
1.14352e-09
-1.1215e-11
1.15304e-09
-1.19753e-11
1.16324e-09
-1.28337e-11
1.17422e-09
-1.3817e-11
1.18612e-09
-1.49642e-11
1.19911e-09
-1.63421e-11
1.21347e-09
-1.80535e-11
1.22962e-09
-2.03095e-11
1.24825e-09
-2.34328e-11
1.27069e-09
-2.82148e-11
1.29926e-09
-3.59091e-11
1.33932e-09
-5.03399e-11
1.40308e-09
-8.0085e-11
1.53783e-09
-1.69609e-10
1.98622e-09
-5.67712e-10
-1.67352e-08
1.11113e-08
3.03588e-09
4.24079e-07
2.55887e-09
7.4846e-10
2.36813e-09
2.99006e-10
2.33718e-09
4.85204e-11
2.2985e-09
6.06429e-11
2.28438e-09
2.21317e-11
2.27342e-09
1.71783e-11
2.26764e-09
9.07112e-12
2.26381e-09
6.00305e-12
2.2615e-09
3.61e-12
2.26001e-09
2.33788e-12
2.25906e-09
1.48923e-12
2.25844e-09
9.77746e-13
2.25803e-09
6.45626e-13
2.25775e-09
4.3381e-13
2.25756e-09
2.94714e-13
2.25743e-09
2.02937e-13
2.25734e-09
1.41359e-13
2.25728e-09
9.9608e-14
2.25723e-09
7.09056e-14
2.2572e-09
5.09079e-14
2.25718e-09
3.6738e-14
2.25716e-09
2.6468e-14
2.25715e-09
1.87627e-14
2.25714e-09
1.26563e-14
2.25714e-09
7.39995e-15
2.25714e-09
2.35587e-15
2.25714e-09
-3.08367e-15
2.25714e-09
-9.5611e-15
2.25716e-09
-1.78065e-14
2.25717e-09
-2.86893e-14
2.2572e-09
-4.32679e-14
2.25724e-09
-6.28385e-14
2.2573e-09
-8.89813e-14
2.25738e-09
-1.23606e-13
2.25748e-09
-1.68993e-13
2.25763e-09
-2.27832e-13
2.25782e-09
-3.0325e-13
2.25808e-09
-3.98834e-13
2.25841e-09
-5.18639e-13
2.25883e-09
-6.67188e-13
2.25938e-09
-8.49453e-13
2.26006e-09
-1.07083e-12
2.26091e-09
-1.33708e-12
2.26197e-09
-1.65433e-12
2.26326e-09
-2.02893e-12
2.26483e-09
-2.46748e-12
2.26673e-09
-2.9767e-12
2.269e-09
-3.56347e-12
2.27171e-09
-4.23471e-12
2.27489e-09
-4.9975e-12
2.27863e-09
-5.85907e-12
2.28298e-09
-6.82694e-12
2.28803e-09
-7.90919e-12
2.29384e-09
-9.11468e-12
2.30051e-09
-1.04536e-11
2.30812e-09
-1.19382e-11
2.31678e-09
-1.35831e-11
2.32661e-09
-1.54081e-11
2.33773e-09
-1.74352e-11
2.35029e-09
-1.97048e-11
2.36448e-09
-2.22416e-11
2.38052e-09
-2.5158e-11
2.39229e-09
-1.84526e-11
2.40473e-09
-1.95145e-11
2.41788e-09
-2.06151e-11
2.43178e-09
-2.18089e-11
2.44648e-09
-2.30532e-11
2.46204e-09
-2.43878e-11
2.4785e-09
-2.58191e-11
2.49596e-09
-2.73731e-11
2.5145e-09
-2.90739e-11
2.53424e-09
-3.09538e-11
2.55531e-09
-3.30527e-11
2.5779e-09
-3.54227e-11
2.60222e-09
-3.81387e-11
2.62857e-09
-4.13084e-11
2.65734e-09
-4.51181e-11
2.68914e-09
-4.98537e-11
2.72494e-09
-5.61017e-11
2.76626e-09
-6.47606e-11
2.81608e-09
-7.80279e-11
2.87957e-09
-9.93974e-11
2.96872e-09
-1.39499e-10
3.1109e-09
-2.22262e-10
3.40889e-09
-4.67603e-10
4.3708e-09
-1.52962e-09
-2.76486e-08
1.52842e-08
5.68644e-09
6.27513e-07
4.79471e-09
1.64019e-09
4.43761e-09
6.56103e-10
4.37957e-09
1.06558e-10
4.30715e-09
1.33069e-10
4.2807e-09
4.85796e-11
4.26018e-09
3.76968e-11
4.24934e-09
1.99082e-11
4.24217e-09
1.31739e-11
4.23786e-09
7.92253e-12
4.23507e-09
5.13063e-12
4.23329e-09
3.26826e-12
4.23212e-09
2.14574e-12
4.23135e-09
1.41689e-12
4.23083e-09
9.52036e-13
4.23048e-09
6.46778e-13
4.23024e-09
4.45365e-13
4.23007e-09
3.10227e-13
4.22995e-09
2.186e-13
4.22986e-09
1.55609e-13
4.2298e-09
1.11722e-13
4.22976e-09
8.06247e-14
4.22973e-09
5.80864e-14
4.22971e-09
4.11767e-14
4.22969e-09
2.77765e-14
4.22968e-09
1.62421e-14
4.22968e-09
5.17442e-15
4.22968e-09
-6.76021e-15
4.22969e-09
-2.09712e-14
4.22972e-09
-3.90602e-14
4.22975e-09
-6.29345e-14
4.2298e-09
-9.49161e-14
4.22988e-09
-1.37849e-13
4.22998e-09
-1.95198e-13
4.23013e-09
-2.71154e-13
4.23033e-09
-3.7072e-13
4.2306e-09
-4.99794e-13
4.23097e-09
-6.65239e-13
4.23144e-09
-8.74921e-13
4.23206e-09
-1.13774e-12
4.23286e-09
-1.46361e-12
4.23387e-09
-1.86344e-12
4.23515e-09
-2.34906e-12
4.23675e-09
-2.93315e-12
4.23872e-09
-3.62908e-12
4.24114e-09
-4.45084e-12
4.24409e-09
-5.41287e-12
4.24764e-09
-6.52995e-12
4.2519e-09
-7.81711e-12
4.25695e-09
-9.2896e-12
4.26292e-09
-1.09629e-11
4.26991e-09
-1.28529e-11
4.27806e-09
-1.4976e-11
4.2875e-09
-1.73501e-11
4.29838e-09
-1.99945e-11
4.31086e-09
-2.29316e-11
4.32511e-09
-2.61881e-11
4.34132e-09
-2.97963e-11
4.35971e-09
-3.37994e-11
4.38052e-09
-3.82459e-11
4.40404e-09
-4.3224e-11
4.43059e-09
-4.87885e-11
4.46062e-09
-5.51852e-11
4.48264e-09
-4.04754e-11
4.50593e-09
-4.28055e-11
4.53053e-09
-4.52192e-11
4.55656e-09
-4.78372e-11
4.58407e-09
-5.0566e-11
4.61318e-09
-5.34929e-11
4.64399e-09
-5.6632e-11
4.67666e-09
-6.00403e-11
4.71136e-09
-6.37707e-11
4.7483e-09
-6.78943e-11
4.78774e-09
-7.24988e-11
4.83002e-09
-7.76994e-11
4.87554e-09
-8.36612e-11
4.92486e-09
-9.06226e-11
4.97873e-09
-9.89953e-11
5.03829e-09
-1.09413e-10
5.10536e-09
-1.23169e-10
5.18286e-09
-1.42258e-10
5.27635e-09
-1.71525e-10
5.39569e-09
-2.1873e-10
5.56351e-09
-3.07317e-10
5.83165e-09
-4.90406e-10
6.38797e-09
-1.02393e-09
8.1209e-09
-3.26255e-09
-4.0662e-08
2.11343e-08
9.82073e-09
8.7282e-07
8.28414e-09
3.17677e-09
7.66786e-09
1.27238e-09
7.56746e-09
2.06962e-10
7.44244e-09
2.5808e-10
7.39675e-09
9.42711e-11
7.36133e-09
7.31209e-11
7.34261e-09
3.86233e-11
7.33023e-09
2.55555e-11
7.32278e-09
1.53694e-11
7.31796e-09
9.95293e-12
7.31489e-09
6.34023e-12
7.31287e-09
4.16259e-12
7.31154e-09
2.74868e-12
7.31065e-09
1.8469e-12
7.31004e-09
1.25472e-12
7.30962e-09
8.63989e-13
7.30933e-09
6.01829e-13
7.30912e-09
4.24076e-13
7.30898e-09
3.01877e-13
7.30887e-09
2.16739e-13
7.3088e-09
1.56411e-13
7.30874e-09
1.12688e-13
7.3087e-09
7.98855e-14
7.30868e-09
5.38914e-14
7.30866e-09
3.15183e-14
7.30866e-09
1.00521e-14
7.30866e-09
-1.30935e-14
7.30868e-09
-4.06517e-14
7.30872e-09
-7.57286e-14
7.30878e-09
-1.22022e-13
7.30887e-09
-1.84036e-13
7.309e-09
-2.67282e-13
7.30918e-09
-3.78482e-13
7.30944e-09
-5.2576e-13
7.30978e-09
-7.18816e-13
7.31025e-09
-9.69089e-13
7.31088e-09
-1.28988e-12
7.3117e-09
-1.69645e-12
7.31277e-09
-2.20605e-12
7.31414e-09
-2.8379e-12
7.31589e-09
-3.61316e-12
7.3181e-09
-4.55477e-12
7.32085e-09
-5.6873e-12
7.32426e-09
-7.03669e-12
7.32844e-09
-8.63005e-12
7.33352e-09
-1.04954e-11
7.33965e-09
-1.26614e-11
7.34699e-09
-1.51571e-11
7.35571e-09
-1.80122e-11
7.36601e-09
-2.12566e-11
7.37808e-09
-2.49211e-11
7.39214e-09
-2.90378e-11
7.40843e-09
-3.36409e-11
7.4272e-09
-3.8768e-11
7.44873e-09
-4.44627e-11
7.47332e-09
-5.07766e-11
7.5013e-09
-5.77723e-11
7.53303e-09
-6.55334e-11
7.56894e-09
-7.41542e-11
7.60952e-09
-8.38054e-11
7.65533e-09
-9.45932e-11
7.70714e-09
-1.06994e-10
7.74513e-09
-7.84722e-11
7.78532e-09
-8.29907e-11
7.82777e-09
-8.76698e-11
7.87268e-09
-9.27437e-11
7.92014e-09
-9.80335e-11
7.97036e-09
-1.03707e-10
8.02352e-09
-1.09791e-10
8.07987e-09
-1.16398e-10
8.13973e-09
-1.2363e-10
8.20346e-09
-1.31624e-10
8.27152e-09
-1.40553e-10
8.34446e-09
-1.5064e-10
8.42301e-09
-1.62209e-10
8.50811e-09
-1.75725e-10
8.60111e-09
-1.91993e-10
8.70395e-09
-2.12257e-10
8.81983e-09
-2.39044e-10
8.95384e-09
-2.7627e-10
9.11569e-09
-3.33375e-10
9.32259e-09
-4.25636e-10
9.61397e-09
-5.98696e-10
1.00803e-08
-9.5674e-10
1.10359e-08
-1.97956e-09
1.38915e-08
-6.11807e-09
-5.61236e-08
2.9353e-08
1.61757e-08
1.16845e-06
1.36516e-08
5.70095e-09
1.26375e-08
2.28649e-09
1.24717e-08
3.72703e-10
1.2266e-08
4.63834e-10
1.21907e-08
1.69562e-10
1.21323e-08
1.31443e-10
1.21015e-08
6.94473e-11
1.20811e-08
4.59433e-11
1.20689e-08
2.76331e-11
1.20609e-08
1.78939e-11
1.20559e-08
1.13991e-11
1.20525e-08
7.48385e-12
1.20504e-08
4.94185e-12
1.20489e-08
3.32054e-12
1.20479e-08
2.25588e-12
1.20472e-08
1.55338e-12
1.20467e-08
1.08205e-12
1.20464e-08
7.62462e-13
1.20461e-08
5.4276e-13
1.2046e-08
3.89688e-13
1.20458e-08
2.81225e-13
1.20457e-08
2.02616e-13
1.20457e-08
1.43642e-13
1.20456e-08
9.69104e-14
1.20456e-08
5.6692e-14
1.20456e-08
1.81079e-14
1.20456e-08
-2.34906e-14
1.20456e-08
-7.30153e-14
1.20457e-08
-1.36048e-13
1.20458e-08
-2.19234e-13
1.2046e-08
-3.30664e-13
1.20462e-08
-4.80244e-13
1.20465e-08
-6.80054e-13
1.20469e-08
-9.44685e-13
1.20475e-08
-1.29157e-12
1.20482e-08
-1.74127e-12
1.20493e-08
-2.31767e-12
1.20506e-08
-3.0482e-12
1.20524e-08
-3.96385e-12
1.20546e-08
-5.09917e-12
1.20575e-08
-6.49217e-12
1.20611e-08
-8.18407e-12
1.20657e-08
-1.0219e-11
1.20713e-08
-1.26436e-11
1.20782e-08
-1.55065e-11
1.20865e-08
-1.88582e-11
1.20966e-08
-2.275e-11
1.21087e-08
-2.72343e-11
1.2123e-08
-3.23642e-11
1.214e-08
-3.81937e-11
1.21598e-08
-4.4778e-11
1.2183e-08
-5.21746e-11
1.22098e-08
-6.04451e-11
1.22407e-08
-6.96571e-11
1.22761e-08
-7.98888e-11
1.23165e-08
-9.12328e-11
1.23626e-08
-1.03802e-10
1.24148e-08
-1.17745e-10
1.24739e-08
-1.33233e-10
1.25406e-08
-1.50572e-10
1.2616e-08
-1.69952e-10
1.27012e-08
-1.92228e-10
1.27637e-08
-1.40982e-10
1.28298e-08
-1.49101e-10
1.28997e-08
-1.57506e-10
1.29736e-08
-1.66618e-10
1.30516e-08
-1.7612e-10
1.31342e-08
-1.86309e-10
1.32217e-08
-1.97238e-10
1.33144e-08
-2.09105e-10
1.34129e-08
-2.22096e-10
1.35177e-08
-2.36458e-10
1.36296e-08
-2.52502e-10
1.37496e-08
-2.70633e-10
1.38789e-08
-2.91437e-10
1.40189e-08
-3.15761e-10
1.4172e-08
-3.45065e-10
1.43413e-08
-3.81612e-10
1.45323e-08
-4.29979e-10
1.47533e-08
-4.97311e-10
1.50206e-08
-6.00654e-10
1.53629e-08
-7.67923e-10
1.58455e-08
-1.08136e-09
1.66187e-08
-1.72992e-09
1.81797e-08
-3.54056e-09
2.26242e-08
-1.05625e-08
-7.44139e-08
4.09145e-08
2.58371e-08
1.52448e-06
2.18182e-08
9.71986e-09
2.02003e-08
3.90438e-09
1.99349e-08
6.38163e-10
1.96065e-08
7.92172e-10
1.94862e-08
2.89886e-10
1.93931e-08
2.24547e-10
1.93439e-08
1.18678e-10
1.93113e-08
7.84967e-11
1.92917e-08
4.72173e-11
1.9279e-08
3.05742e-11
1.9271e-08
1.94775e-11
1.92657e-08
1.27875e-11
1.92622e-08
8.44412e-12
1.92598e-08
5.6738e-12
1.92582e-08
3.85464e-12
1.92571e-08
2.65429e-12
1.92563e-08
1.84892e-12
1.92558e-08
1.30285e-12
1.92554e-08
9.27446e-13
1.92551e-08
6.65891e-13
1.92549e-08
4.8056e-13
1.92548e-08
3.46242e-13
1.92547e-08
2.45477e-13
1.92546e-08
1.65635e-13
1.92546e-08
9.69265e-14
1.92546e-08
3.10184e-14
1.92546e-08
-4.00297e-14
1.92546e-08
-1.24606e-13
1.92547e-08
-2.32243e-13
1.92549e-08
-3.74287e-13
1.92551e-08
-5.64555e-13
1.92555e-08
-8.19962e-13
1.9256e-08
-1.16113e-12
1.92566e-08
-1.61298e-12
1.92575e-08
-2.20527e-12
1.92588e-08
-2.9731e-12
1.92604e-08
-3.95728e-12
1.92626e-08
-5.20462e-12
1.92654e-08
-6.76802e-12
1.9269e-08
-8.70651e-12
1.92736e-08
-1.1085e-11
1.92794e-08
-1.39738e-11
1.92866e-08
-1.74483e-11
1.92955e-08
-2.15881e-11
1.93065e-08
-2.64764e-11
1.93198e-08
-3.2199e-11
1.93359e-08
-3.88439e-11
1.93552e-08
-4.65006e-11
1.93781e-08
-5.52594e-11
1.94051e-08
-6.52126e-11
1.94368e-08
-7.64545e-11
1.94737e-08
-8.90833e-11
1.95165e-08
-1.03204e-10
1.95657e-08
-1.18932e-10
1.96222e-08
-1.36401e-10
1.96868e-08
-1.55768e-10
1.97602e-08
-1.77226e-10
1.98435e-08
-2.01031e-10
1.99377e-08
-2.27471e-10
2.00442e-08
-2.57069e-10
2.01644e-08
-2.90155e-10
2.03004e-08
-3.28177e-10
2.04001e-08
-2.40681e-10
2.05055e-08
-2.54542e-10
2.06169e-08
-2.68891e-10
2.07347e-08
-2.84438e-10
2.08593e-08
-3.00655e-10
2.0991e-08
-3.18044e-10
2.11305e-08
-3.36696e-10
2.12783e-08
-3.56949e-10
2.14353e-08
-3.79121e-10
2.16025e-08
-4.0364e-10
2.1781e-08
-4.31034e-10
2.19724e-08
-4.62004e-10
2.21785e-08
-4.97559e-10
2.24019e-08
-5.39165e-10
2.26462e-08
-5.89343e-10
2.29166e-08
-6.52019e-10
2.32217e-08
-7.35069e-10
2.35753e-08
-8.50914e-10
2.40034e-08
-1.02879e-09
2.45528e-08
-1.31724e-09
2.53282e-08
-1.85679e-09
2.657e-08
-2.97174e-09
2.90327e-08
-6.00324e-09
3.56642e-08
-1.7194e-08
-9.59371e-08
5.71873e-08
4.03997e-08
1.95288e-06
3.41399e-08
1.59796e-08
3.16139e-08
6.4304e-09
3.11974e-08
1.05464e-09
3.06846e-08
1.30497e-09
3.04964e-08
4.7815e-10
3.03509e-08
3.70029e-10
3.02739e-08
1.95649e-10
3.0223e-08
1.29375e-10
3.01924e-08
7.78315e-11
3.01726e-08
5.03941e-11
3.016e-08
3.21053e-11
3.01517e-08
2.10776e-11
3.01462e-08
1.39187e-11
3.01425e-08
9.3523e-12
3.014e-08
6.35378e-12
3.01383e-08
4.37523e-12
3.01371e-08
3.04772e-12
3.01363e-08
2.14761e-12
3.01357e-08
1.52881e-12
3.01352e-08
1.09768e-12
3.01349e-08
7.92191e-13
3.01347e-08
5.70794e-13
3.01345e-08
4.04706e-13
3.01344e-08
2.73115e-13
3.01344e-08
1.59887e-13
3.01343e-08
5.12886e-14
3.01344e-08
-6.57606e-14
3.01344e-08
-2.05079e-13
3.01346e-08
-3.82368e-13
3.01348e-08
-6.16315e-13
3.01352e-08
-9.29677e-13
3.01357e-08
-1.35031e-12
3.01365e-08
-1.91218e-12
3.01375e-08
-2.65632e-12
3.0139e-08
-3.63175e-12
3.01409e-08
-4.89627e-12
3.01434e-08
-6.5171e-12
3.01468e-08
-8.5713e-12
3.01512e-08
-1.1146e-11
3.01568e-08
-1.43385e-11
3.0164e-08
-1.82555e-11
3.0173e-08
-2.30129e-11
3.01843e-08
-2.87349e-11
3.01983e-08
-3.55526e-11
3.02154e-08
-4.36029e-11
3.02362e-08
-5.30272e-11
3.02614e-08
-6.39704e-11
3.02914e-08
-7.65795e-11
3.03272e-08
-9.10039e-11
3.03694e-08
-1.07395e-10
3.04188e-08
-1.25908e-10
3.04764e-08
-1.46705e-10
3.05432e-08
-1.69958e-10
3.06201e-08
-1.95858e-10
3.07083e-08
-2.24624e-10
3.08091e-08
-2.56516e-10
3.09237e-08
-2.9185e-10
3.10537e-08
-3.31046e-10
3.12008e-08
-3.74582e-10
3.13671e-08
-4.23314e-10
3.15547e-08
-4.77789e-10
3.17669e-08
-5.40381e-10
3.19225e-08
-3.96295e-10
3.20871e-08
-4.1912e-10
3.2261e-08
-4.42744e-10
3.24449e-08
-4.68327e-10
3.26392e-08
-4.9502e-10
3.28448e-08
-5.23637e-10
3.30625e-08
-5.54337e-10
3.32932e-08
-5.87674e-10
3.35382e-08
-6.24171e-10
3.37991e-08
-6.64537e-10
3.40778e-08
-7.09651e-10
3.43764e-08
-7.60675e-10
3.46982e-08
-8.19292e-10
3.50469e-08
-8.87954e-10
3.54285e-08
-9.70862e-10
3.5851e-08
-1.0746e-09
3.63282e-08
-1.21226e-09
3.6882e-08
-1.4047e-09
3.75535e-08
-1.70026e-09
3.84167e-08
-2.18041e-09
3.96359e-08
-3.076e-09
4.15843e-08
-4.9202e-09
4.53664e-08
-9.78527e-09
5.49214e-08
-2.67491e-08
-1.21102e-07
8.00868e-08
6.22004e-08
2.46781e-06
5.2608e-08
2.55721e-08
4.8726e-08
1.03125e-08
4.80821e-08
1.69846e-09
4.72937e-08
2.09336e-09
4.70037e-08
7.68228e-10
4.67799e-08
5.93825e-10
4.66614e-08
3.14139e-10
4.65831e-08
2.07665e-10
4.6536e-08
1.24949e-10
4.65055e-08
8.08952e-11
4.6486e-08
5.15396e-11
4.64733e-08
3.3836e-11
4.64649e-08
2.23442e-11
4.64592e-08
1.50136e-11
4.64553e-08
1.02001e-11
4.64527e-08
7.02387e-12
4.64509e-08
4.89278e-12
4.64496e-08
3.44779e-12
4.64486e-08
2.45441e-12
4.6448e-08
1.76229e-12
4.64475e-08
1.27188e-12
4.64471e-08
9.16463e-13
4.64469e-08
6.4985e-13
4.64467e-08
4.3863e-13
4.64466e-08
2.5691e-13
4.64466e-08
8.26515e-14
4.64466e-08
-1.05133e-13
4.64468e-08
-3.2861e-13
4.6447e-08
-6.12962e-13
4.64474e-08
-9.88163e-13
4.64479e-08
-1.49071e-12
4.64487e-08
-2.16527e-12
4.64499e-08
-3.06631e-12
4.64515e-08
-4.25965e-12
4.64537e-08
-5.82389e-12
4.64567e-08
-7.85172e-12
4.64606e-08
-1.04509e-11
4.64658e-08
-1.37451e-11
4.64725e-08
-1.7874e-11
4.64811e-08
-2.29934e-11
4.64922e-08
-2.92748e-11
4.65061e-08
-3.69039e-11
4.65234e-08
-4.60798e-11
4.65449e-08
-5.70127e-11
4.65712e-08
-6.99222e-11
4.66032e-08
-8.5035e-11
4.66418e-08
-1.02583e-10
4.6688e-08
-1.22803e-10
4.6743e-08
-1.45934e-10
4.68078e-08
-1.72218e-10
4.68838e-08
-2.01904e-10
4.69723e-08
-2.35252e-10
4.70749e-08
-2.72539e-10
4.71931e-08
-3.14069e-10
4.73287e-08
-3.60194e-10
4.74835e-08
-4.11328e-10
4.76596e-08
-4.67982e-10
4.78594e-08
-5.30825e-10
4.80854e-08
-6.00623e-10
4.83409e-08
-6.78746e-10
4.86292e-08
-7.66078e-10
4.89552e-08
-8.66404e-10
4.91943e-08
-6.35363e-10
4.94471e-08
-6.71957e-10
4.97142e-08
-7.09828e-10
4.99967e-08
-7.50809e-10
5.02952e-08
-7.93587e-10
5.0611e-08
-8.3944e-10
5.09453e-08
-8.88635e-10
5.12997e-08
-9.42055e-10
5.16761e-08
-1.00055e-09
5.20768e-08
-1.06525e-09
5.25047e-08
-1.13759e-09
5.29635e-08
-1.21945e-09
5.34578e-08
-1.31356e-09
5.39937e-08
-1.42392e-09
5.45802e-08
-1.55737e-09
5.52303e-08
-1.72468e-09
5.59651e-08
-1.94705e-09
5.6819e-08
-2.25862e-09
5.7856e-08
-2.73718e-09
5.91913e-08
-3.51574e-09
6.10771e-08
-4.96176e-09
6.40769e-08
-7.92004e-09
6.97525e-08
-1.54609e-08
8.3092e-08
-4.00886e-08
-1.50295e-07
1.12285e-07
9.4655e-08
3.08598e-06
8.0141e-08
4.00861e-08
7.42466e-08
1.62068e-08
7.32621e-08
2.68301e-09
7.20645e-08
3.29097e-09
7.16226e-08
1.21006e-09
7.12824e-08
9.34029e-10
7.11022e-08
4.94419e-10
7.09831e-08
3.26718e-10
7.09114e-08
1.9662e-10
7.0865e-08
1.27283e-10
7.08355e-08
8.10993e-11
7.08161e-08
5.32409e-11
7.08033e-08
3.51594e-11
7.07947e-08
2.36246e-11
7.07888e-08
1.60505e-11
7.07848e-08
1.10526e-11
7.0782e-08
7.6993e-12
7.078e-08
5.42554e-12
7.07786e-08
3.86241e-12
7.07776e-08
2.77332e-12
7.07768e-08
2.00162e-12
7.07763e-08
1.44238e-12
7.07759e-08
1.02288e-12
7.07757e-08
6.90568e-13
7.07755e-08
4.04716e-13
7.07755e-08
1.30662e-13
7.07756e-08
-1.646e-13
7.07757e-08
-5.15915e-13
7.07761e-08
-9.62871e-13
7.07767e-08
-1.55258e-12
7.07775e-08
-2.34239e-12
7.07788e-08
-3.40252e-12
7.07805e-08
-4.81856e-12
7.07829e-08
-6.69394e-12
7.07863e-08
-9.1522e-12
7.07908e-08
-1.2339e-11
7.07967e-08
-1.64237e-11
7.08046e-08
-2.16005e-11
7.08148e-08
-2.80891e-11
7.08279e-08
-3.61344e-11
7.08447e-08
-4.60057e-11
7.08658e-08
-5.79949e-11
7.08921e-08
-7.24149e-11
7.09247e-08
-8.95959e-11
7.09646e-08
-1.09883e-10
7.10132e-08
-1.33633e-10
7.10719e-08
-1.61209e-10
7.1142e-08
-1.92984e-10
7.12254e-08
-2.29333e-10
7.13239e-08
-2.70636e-10
7.14392e-08
-3.17287e-10
7.15737e-08
-3.6969e-10
7.17294e-08
-4.28282e-10
7.19089e-08
-4.93539e-10
7.21147e-08
-5.66014e-10
7.23498e-08
-6.46359e-10
7.26171e-08
-7.35372e-10
7.29204e-08
-8.34106e-10
7.32636e-08
-9.43764e-10
7.36513e-08
-1.06649e-09
7.40889e-08
-1.20368e-09
7.45838e-08
-1.36125e-09
7.49466e-08
-9.98204e-10
7.53303e-08
-1.05569e-09
7.57357e-08
-1.11518e-09
7.61644e-08
-1.1795e-09
7.66175e-08
-1.24667e-09
7.70967e-08
-1.31865e-09
7.76039e-08
-1.39589e-09
7.81416e-08
-1.47976e-09
7.87127e-08
-1.5716e-09
7.93206e-08
-1.67322e-09
7.99699e-08
-1.78687e-09
8.06661e-08
-1.91556e-09
8.14161e-08
-2.06364e-09
8.22297e-08
-2.23753e-09
8.31205e-08
-2.44812e-09
8.41086e-08
-2.71273e-09
8.52265e-08
-3.06501e-09
8.65277e-08
-3.55979e-09
8.81099e-08
-4.31943e-09
9.01504e-08
-5.55622e-09
9.30277e-08
-7.83905e-09
9.75684e-08
-1.24608e-08
1.05902e-07
-2.3794e-08
1.23965e-07
-5.81517e-08
-1.8383e-07
1.57499e-07
1.42743e-07
3.82689e-06
1.21008e-07
6.18211e-08
1.12144e-07
2.50713e-08
1.1065e-07
4.17651e-09
1.08848e-07
5.093e-09
1.08181e-07
1.87708e-09
1.07669e-07
1.44638e-09
1.07397e-07
7.66213e-10
1.07218e-07
5.06092e-10
1.0711e-07
3.04637e-10
1.0704e-07
1.97185e-10
1.06995e-07
1.25647e-10
1.06966e-07
8.2484e-11
1.06947e-07
5.44727e-11
1.06934e-07
3.66018e-11
1.06925e-07
2.48677e-11
1.06919e-07
1.71245e-11
1.06915e-07
1.19292e-11
1.06912e-07
8.40642e-12
1.0691e-07
5.98462e-12
1.06908e-07
4.29726e-12
1.06907e-07
3.10166e-12
1.06906e-07
2.23523e-12
1.06906e-07
1.58535e-12
1.06905e-07
1.0706e-12
1.06905e-07
6.27896e-13
1.06905e-07
2.03575e-13
1.06905e-07
-2.53458e-13
1.06905e-07
-7.97133e-13
1.06906e-07
-1.48871e-12
1.06907e-07
-2.40106e-12
1.06908e-07
-3.62294e-12
1.0691e-07
-5.26296e-12
1.06912e-07
-7.45352e-12
1.06916e-07
-1.03546e-11
1.06921e-07
-1.41574e-11
1.06928e-07
-1.90871e-11
1.06937e-07
-2.54058e-11
1.06949e-07
-3.34139e-11
1.06964e-07
-4.34512e-11
1.06984e-07
-5.58966e-11
1.07009e-07
-7.11664e-11
1.07041e-07
-8.97126e-11
1.0708e-07
-1.12019e-10
1.07129e-07
-1.38596e-10
1.07189e-07
-1.69978e-10
1.07262e-07
-2.06716e-10
1.07351e-07
-2.49373e-10
1.07456e-07
-2.98524e-10
1.07582e-07
-3.5475e-10
1.0773e-07
-4.18639e-10
1.07903e-07
-4.90798e-10
1.08105e-07
-5.71853e-10
1.08339e-07
-6.62479e-10
1.08609e-07
-7.63412e-10
1.08919e-07
-8.75504e-10
1.09272e-07
-9.99765e-10
1.09674e-07
-1.13742e-09
1.1013e-07
-1.29011e-09
1.10646e-07
-1.45968e-09
1.11229e-07
-1.64943e-09
1.11887e-07
-1.86156e-09
1.12631e-07
-2.10512e-09
1.13176e-07
-1.5436e-09
1.13753e-07
-1.63248e-09
1.14362e-07
-1.72445e-09
1.15007e-07
-1.82378e-09
1.15687e-07
-1.92758e-09
1.16408e-07
-2.03878e-09
1.1717e-07
-2.15811e-09
1.17978e-07
-2.28769e-09
1.18836e-07
-2.42961e-09
1.19749e-07
-2.58667e-09
1.20725e-07
-2.76239e-09
1.21771e-07
-2.96151e-09
1.22898e-07
-3.19085e-09
1.24121e-07
-3.46058e-09
1.25461e-07
-3.78783e-09
1.26948e-07
-4.20001e-09
1.28633e-07
-4.74967e-09
1.30596e-07
-5.52344e-09
1.32987e-07
-6.71011e-09
1.36072e-07
-8.6414e-09
1.40408e-07
-1.21747e-08
1.47166e-07
-1.92194e-08
1.59129e-07
-3.5757e-08
1.82845e-07
-8.1867e-08
-2.21875e-07
2.2089e-07
2.13706e-07
4.7132e-06
1.81443e-07
9.40843e-08
1.68216e-07
3.8298e-08
1.65965e-07
6.42824e-09
1.63274e-07
7.78348e-09
1.62274e-07
2.87693e-09
1.61509e-07
2.21216e-09
1.61102e-07
1.17297e-09
1.60834e-07
7.74327e-10
1.60672e-07
4.6623e-10
1.60567e-07
3.01736e-10
1.60501e-07
1.92285e-10
1.60457e-07
1.26226e-10
1.60428e-07
8.3363e-11
1.60409e-07
5.60143e-11
1.60396e-07
3.80576e-11
1.60387e-07
2.62078e-11
1.6038e-07
1.82571e-11
1.60376e-07
1.2866e-11
1.60373e-07
9.1597e-12
1.6037e-07
6.57738e-12
1.60369e-07
4.74767e-12
1.60367e-07
3.42173e-12
1.60367e-07
2.42727e-12
1.60366e-07
1.63969e-12
1.60366e-07
9.62517e-13
1.60366e-07
3.13655e-13
1.60366e-07
-3.85004e-13
1.60366e-07
-1.21589e-12
1.60367e-07
-2.27259e-12
1.60368e-07
-3.66648e-12
1.6037e-07
-5.53312e-12
1.60373e-07
-8.03843e-12
1.60377e-07
-1.13847e-11
1.60382e-07
-1.58163e-11
1.6039e-07
-2.16251e-11
1.604e-07
-2.91554e-11
1.60413e-07
-3.88074e-11
1.60431e-07
-5.104e-11
1.60454e-07
-6.63722e-11
1.60483e-07
-8.53826e-11
1.60521e-07
-1.08707e-10
1.60568e-07
-1.37037e-10
1.60627e-07
-1.7111e-10
1.607e-07
-2.11706e-10
1.6079e-07
-2.59641e-10
1.60899e-07
-3.15757e-10
1.61031e-07
-3.80916e-10
1.61188e-07
-4.55991e-10
1.61375e-07
-5.41871e-10
1.61596e-07
-6.39456e-10
1.61855e-07
-7.4967e-10
1.62156e-07
-8.73469e-10
1.62506e-07
-1.01188e-09
1.62909e-07
-1.16603e-09
1.6337e-07
-1.33722e-09
1.63897e-07
-1.52698e-09
1.64497e-07
-1.73719e-09
1.65177e-07
-1.97033e-09
1.65947e-07
-2.22923e-09
1.66816e-07
-2.51891e-09
1.67798e-07
-2.84276e-09
1.68907e-07
-3.21444e-09
1.6972e-07
-2.35687e-09
1.7058e-07
-2.49254e-09
1.71489e-07
-2.63291e-09
1.72449e-07
-2.78434e-09
1.73464e-07
-2.94267e-09
1.74538e-07
-3.11224e-09
1.75674e-07
-3.29421e-09
1.76878e-07
-3.49182e-09
1.78157e-07
-3.70827e-09
1.79518e-07
-3.94788e-09
1.80972e-07
-4.21609e-09
1.8253e-07
-4.52024e-09
1.84211e-07
-4.87096e-09
1.86034e-07
-5.28412e-09
1.88033e-07
-5.78636e-09
1.90253e-07
-6.42056e-09
1.92771e-07
-7.2676e-09
1.9571e-07
-8.46232e-09
1.9929e-07
-1.02906e-08
2.03909e-07
-1.32595e-08
2.10359e-07
-1.86249e-08
2.20239e-07
-2.90997e-08
2.36996e-07
-5.25137e-08
2.67147e-07
-1.12018e-07
-2.64354e-07
3.09625e-07
3.18041e-07
5.77089e-06
2.70527e-07
1.41598e-07
2.50924e-07
5.79008e-08
2.47545e-07