/*--------------------------------*- C++ -*----------------------------------*\
| =========                 |                                                 |
| \\      /  F ield         | OpenFOAM: The Open Source CFD Toolbox           |
|  \\    /   O peration     | Version:  2506                                  |
|   \\  /    A nd           | Website:  www.openfoam.com                      |
|    \\/     M anipulation  |                                                 |
\*---------------------------------------------------------------------------*/
FoamFile
{
    version     2.0;
    format      ascii;
    arch        "LSB;label=32;scalar=64";
    class       surfaceScalarField;
    location    "2000";
    object      phi;
}
// * * * * * * * * * * * * * * * * * * * * * * * * * * * * * * * * * * * * * //

dimensions      [0 3 -1 0 0 0 0];

oriented        oriented;

internalField   nonuniform List<scalar> 
40747
(
4.06044e-07
-6.93813e-08
1.85141e-07
2.20903e-07
4.91171e-07
-1.53282e-07
4.06151e-07
2.70161e-07
5.94122e-07
-2.54717e-07
6.6923e-07
3.31042e-07
7.18612e-07
-3.77313e-07
9.81309e-07
4.06533e-07
8.69117e-07
-5.25413e-07
1.34996e-06
5.00469e-07
1.05102e-06
-7.042e-07
1.78319e-06
6.17784e-07
1.27078e-06
-9.19818e-07
2.28914e-06
7.64837e-07
1.53612e-06
-1.17948e-06
2.87544e-06
9.49821e-07
1.85622e-06
-1.49153e-06
3.5484e-06
1.18327e-06
2.2419e-06
-1.8654e-06
4.31167e-06
1.47862e-06
2.70578e-06
-2.31137e-06
5.16456e-06
1.85289e-06
3.26236e-06
-2.83998e-06
6.09963e-06
2.32728e-06
3.92789e-06
-3.46078e-06
7.0999e-06
2.92762e-06
4.72007e-06
-4.18017e-06
8.13552e-06
3.68445e-06
5.65725e-06
-4.99769e-06
9.16056e-06
4.63221e-06
6.75745e-06
-5.90038e-06
1.01107e-05
5.8073e-06
8.03713e-06
-6.85485e-06
1.09037e-05
7.24418e-06
9.51097e-06
-7.79773e-06
1.14448e-05
8.9698e-06
1.11948e-05
-8.62752e-06
1.16421e-05
1.09976e-05
1.31165e-05
-9.20516e-06
1.14328e-05
1.33258e-05
1.53402e-05
-9.37669e-06
1.08229e-05
1.59501e-05
1.80058e-05
-9.03254e-06
9.92354e-06
1.89051e-05
2.13643e-05
-8.19843e-06
8.95027e-06
2.23376e-05
2.57501e-05
-7.09451e-06
8.13368e-06
2.65667e-05
3.14395e-05
-6.04794e-06
7.54986e-06
3.20233e-05
3.84946e-05
-5.24322e-06
7.03058e-06
3.90139e-05
4.687e-05
-4.57181e-06
6.33049e-06
4.75701e-05
5.67598e-05
-3.81943e-06
5.35816e-06
5.77321e-05
6.86496e-05
-2.89498e-06
4.13867e-06
6.98691e-05
8.30659e-05
-1.79518e-06
2.67668e-06
8.45279e-05
7.96424e-05
-7.92623e-07
1.31821e-06
8.10009e-05
7.96662e-05
1.86182e-07
-2.064e-08
8.1005e-05
7.96655e-05
1.16569e-06
-1.36053e-06
8.10054e-05
7.96413e-05
2.16941e-06
-2.72127e-06
8.1002e-05
8.05497e-05
3.2321e-06
-4.13716e-06
8.19656e-05
6.69952e-05
4.12982e-06
-5.32517e-06
6.81833e-05
5.57459e-05
4.86375e-06
-6.28345e-06
5.67042e-05
4.63429e-05
5.50613e-06
-6.986e-06
4.70455e-05
3.83454e-05
6.2476e-06
-7.49866e-06
3.8858e-05
3.15469e-05
7.2169e-06
-8.03753e-06
3.20857e-05
2.59794e-05
8.28756e-06
-8.78683e-06
2.67287e-05
2.16248e-05
9.16555e-06
-9.72109e-06
2.25591e-05
1.82722e-05
9.6133e-06
-1.06463e-05
1.91975e-05
1.56232e-05
9.56316e-06
-1.13486e-05
1.63255e-05
1.34293e-05
9.08902e-06
-1.16939e-05
1.37746e-05
1.1539e-05
8.32733e-06
-1.16475e-05
1.14926e-05
9.87803e-06
7.41491e-06
-1.12479e-05
9.47847e-06
8.41395e-06
6.45942e-06
-1.05723e-05
7.73832e-06
7.13094e-06
5.53314e-06
-9.70837e-06
6.26702e-06
6.01679e-06
4.67797e-06
-8.73772e-06
5.04614e-06
5.05823e-06
3.91367e-06
-7.72763e-06
4.04814e-06
4.24024e-06
3.24553e-06
-6.72888e-06
3.24149e-06
3.54682e-06
2.67032e-06
-5.77673e-06
2.59467e-06
2.96204e-06
2.18035e-06
-4.89337e-06
2.07868e-06
2.47079e-06
1.76606e-06
-4.09078e-06
1.6682e-06
2.05929e-06
1.41756e-06
-3.37341e-06
1.34192e-06
1.71531e-06
1.12545e-06
-2.74052e-06
1.08242e-06
1.4282e-06
8.81202e-07
-2.18798e-06
8.75663e-07
1.18881e-06
6.77321e-07
-1.70967e-06
7.10504e-07
9.89344e-07
5.07332e-07
-1.29849e-06
5.78163e-07
8.23238e-07
3.65714e-07
-9.47015e-07
4.71764e-07
6.84955e-07
2.47793e-07
-6.47979e-07
3.8592e-07
5.69868e-07
1.4964e-07
-3.94537e-07
3.16425e-07
4.74095e-07
6.79607e-08
-1.8042e-07
2.59978e-07
3.9441e-07
2.13991e-07
1.57622e-09
2.19327e-07
9.12229e-10
6.63988e-10
7.39807e-10
1.72422e-10
6.58362e-10
8.14449e-11
6.12621e-10
4.57415e-11
5.78858e-10
3.37627e-11
5.51637e-10
2.72214e-11
5.30065e-10
2.15713e-11
5.12631e-10
1.7434e-11
4.98045e-10
1.45867e-11
4.85617e-10
1.24276e-11
4.74917e-10
1.06997e-11
4.65603e-10
9.3139e-12
4.57413e-10
8.19047e-12
4.50151e-10
7.26184e-12
4.43668e-10
6.48311e-12
4.37845e-10
5.82347e-12
4.32585e-10
5.25939e-12
4.27813e-10
4.77268e-12
4.23463e-10
4.34942e-12
4.19484e-10
3.97873e-12
4.15832e-10
3.65199e-12
4.1247e-10
3.36225e-12
4.09366e-10
3.10385e-12
4.06494e-10
2.87215e-12
4.03831e-10
2.66328e-12
4.01357e-10
2.47396e-12
3.99055e-10
2.3014e-12
3.96912e-10
2.14321e-12
3.94915e-10
1.99727e-12
3.93053e-10
1.86171e-12
3.91318e-10
1.73486e-12
3.89703e-10
1.6152e-12
3.88202e-10
1.50133e-12
3.8681e-10
1.39196e-12
3.85524e-10
1.28591e-12
3.84342e-10
1.18206e-12
3.83263e-10
1.07937e-12
3.82286e-10
9.76877e-13
3.81412e-10
8.7368e-13
3.80643e-10
7.68955e-13
3.79981e-10
6.61946e-13
3.79429e-10
5.51975e-13
3.78991e-10
4.38429e-13
3.7867e-10
3.20789e-13
3.78471e-10
1.98581e-13
3.784e-10
7.14491e-14
3.78461e-10
-6.09647e-14
3.7866e-10
-1.98851e-13
3.79002e-10
-3.42501e-13
3.79494e-10
-4.91914e-13
3.80141e-10
-6.47412e-13
3.8095e-10
-8.0879e-13
3.81927e-10
-9.76649e-13
3.83077e-10
-1.15052e-12
3.84409e-10
-1.33159e-12
3.85928e-10
-1.51877e-12
3.87642e-10
-1.71445e-12
3.89559e-10
-1.91655e-12
3.91688e-10
-2.12932e-12
3.94038e-10
-2.35005e-12
3.9662e-10
-2.58196e-12
3.99459e-10
-2.83939e-12
4.01484e-10
-2.02438e-12
4.03562e-10
-2.07808e-12
4.05696e-10
-2.13428e-12
4.07895e-10
-2.19915e-12
4.10154e-10
-2.2586e-12
4.12471e-10
-2.31705e-12
4.14846e-10
-2.37543e-12
4.1728e-10
-2.43377e-12
4.19776e-10
-2.49538e-12
4.22334e-10
-2.55836e-12
4.24964e-10
-2.62998e-12
4.27668e-10
-2.70426e-12
4.30467e-10
-2.79847e-12
4.3336e-10
-2.89368e-12
4.36398e-10
-3.03812e-12
4.39564e-10
-3.16563e-12
4.43e-10
-3.43623e-12
4.46592e-10
-3.59213e-12
4.50843e-10
-4.25065e-12
4.55163e-10
-4.3201e-12
4.61652e-10
-6.48903e-12
4.67542e-10
-5.8895e-12
4.8572e-10
-1.81788e-11
5.14211e-10
-2.84903e-11
-4.5987e-09
5.11291e-09
6.08666e-09
4.83401e-07
3.53899e-09
3.21166e-09
2.87088e-09
8.40526e-10
2.5548e-09
3.97532e-10
2.3772e-09
2.23334e-10
2.24621e-09
1.64754e-10
2.14062e-09
1.32815e-10
2.05693e-09
1.05261e-10
1.98929e-09
8.50741e-11
1.9327e-09
7.11771e-11
1.88448e-09
6.06412e-11
1.84297e-09
5.221e-11
1.80684e-09
4.5448e-11
1.77506e-09
3.99661e-11
1.74689e-09
3.54347e-11
1.72174e-09
3.16348e-11
1.69915e-09
2.84161e-11
1.67874e-09
2.56636e-11
1.66023e-09
2.32887e-11
1.64335e-09
2.12233e-11
1.62792e-09
1.94145e-11
1.61375e-09
1.78202e-11
1.6007e-09
1.64064e-11
1.58866e-09
1.51455e-11
1.57752e-09
1.4015e-11
1.56719e-09
1.29958e-11
1.55759e-09
1.2072e-11
1.54866e-09
1.12301e-11
1.54035e-09
1.04582e-11
1.5326e-09
9.74617e-12
1.52537e-09
9.08481e-12
1.51864e-09
8.46596e-12
1.51238e-09
7.8822e-12
1.50655e-09
7.32676e-12
1.50115e-09
6.79334e-12
1.49616e-09
6.27614e-12
1.49157e-09
5.76973e-12
1.48738e-09
5.26904e-12
1.48359e-09
4.76936e-12
1.4802e-09
4.26632e-12
1.47721e-09
3.7559e-12
1.47464e-09
3.23441e-12
1.47249e-09
2.69856e-12
1.47078e-09
2.14535e-12
1.46953e-09
1.57226e-12
1.46875e-09
9.76974e-13
1.46847e-09
3.57764e-13
1.46869e-09
-2.87121e-13
1.46945e-09
-9.58597e-13
1.47077e-09
-1.6581e-12
1.47266e-09
-2.38559e-12
1.47516e-09
-3.14269e-12
1.47828e-09
-3.92832e-12
1.48205e-09
-4.7455e-12
1.48649e-09
-5.59183e-12
1.49163e-09
-6.47321e-12
1.49749e-09
-7.38414e-12
1.50412e-09
-8.33658e-12
1.51152e-09
-9.31981e-12
1.51975e-09
-1.03554e-11
1.52882e-09
-1.14288e-11
1.5388e-09
-1.25577e-11
1.54977e-09
-1.38086e-11
1.55759e-09
-9.84456e-12
1.56562e-09
-1.01076e-11
1.57387e-09
-1.03799e-11
1.58236e-09
-1.06951e-11
1.59109e-09
-1.0984e-11
1.60004e-09
-1.12677e-11
1.60921e-09
-1.15514e-11
1.61861e-09
-1.18342e-11
1.62825e-09
-1.21336e-11
1.63813e-09
-1.24384e-11
1.64829e-09
-1.27867e-11
1.65873e-09
-1.31451e-11
1.66954e-09
-1.36043e-11
1.6807e-09
-1.40614e-11
1.69243e-09
-1.4768e-11
1.70464e-09
-1.53741e-11
1.71791e-09
-1.67044e-11
1.73174e-09
-1.74237e-11
1.74817e-09
-2.06783e-11
1.76474e-09
-2.0887e-11
1.78989e-09
-3.16434e-11
1.81224e-09
-2.82428e-11
1.88191e-09
-8.7842e-11
1.98335e-09
-1.29938e-10
-9.88943e-09
7.27408e-09
1.34224e-08
8.01021e-07
7.83958e-09
8.79451e-09
6.36148e-09
2.31862e-09
5.6611e-09
1.09791e-09
5.26738e-09
6.17049e-10
4.97717e-09
4.54971e-10
4.74327e-09
3.6671e-10
4.55787e-09
2.90661e-10
4.40802e-09
2.34926e-10
4.28265e-09
1.96544e-10
4.17585e-09
1.67449e-10
4.08389e-09
1.44169e-10
4.00384e-09
1.25497e-10
3.93345e-09
1.10359e-10
3.87103e-09
9.78465e-11
3.81531e-09
8.73539e-11
3.76526e-09
7.84659e-11
3.72006e-09
7.08653e-11
3.67904e-09
6.43075e-11
3.64166e-09
5.86044e-11
3.60747e-09
5.36098e-11
3.57608e-09
4.92074e-11
3.54718e-09
4.53034e-11
3.52051e-09
4.18219e-11
3.49582e-09
3.87e-11
3.47293e-09
3.58858e-11
3.45167e-09
3.33351e-11
3.43189e-09
3.10103e-11
3.41347e-09
2.88792e-11
3.3963e-09
2.69132e-11
3.3803e-09
2.50873e-11
3.36539e-09
2.33788e-11
3.3515e-09
2.17673e-11
3.33859e-09
2.0234e-11
3.32662e-09
1.87617e-11
3.31557e-09
1.73343e-11
3.3054e-09
1.59368e-11
3.29611e-09
1.45553e-11
3.28771e-09
1.31767e-11
3.28018e-09
1.17891e-11
3.27356e-09
1.03813e-11
3.26785e-09
8.94307e-12
3.26308e-09
7.46544e-12
3.25929e-09
5.94013e-12
3.2565e-09
4.36016e-12
3.25476e-09
2.71916e-12
3.2541e-09
1.01238e-12
3.25458e-09
-7.65032e-13
3.25624e-09
-2.61558e-12
3.25912e-09
-4.54322e-12
3.26328e-09
-6.54785e-12
3.26878e-09
-8.63394e-12
3.27565e-09
-1.07985e-11
3.28395e-09
-1.30498e-11
3.29374e-09
-1.53813e-11
3.30508e-09
-1.78092e-11
3.31801e-09
-2.03181e-11
3.33261e-09
-2.29415e-11
3.34894e-09
-2.56489e-11
3.36709e-09
-2.85012e-11
3.38712e-09
-3.14559e-11
3.40912e-09
-3.4565e-11
3.43332e-09
-3.8006e-11
3.45057e-09
-2.7095e-11
3.46829e-09
-2.78224e-11
3.48648e-09
-2.85702e-11
3.50522e-09
-2.94366e-11
3.52446e-09
-3.02309e-11
3.54421e-09
-3.10106e-11
3.56445e-09
-3.17904e-11
3.58518e-09
-3.25669e-11
3.60644e-09
-3.33897e-11
3.62822e-09
-3.42255e-11
3.65062e-09
-3.51827e-11
3.67364e-09
-3.6164e-11
3.69746e-09
-3.74265e-11
3.72207e-09
-3.86752e-11
3.74793e-09
-4.06199e-11
3.77482e-09
-4.22692e-11
3.80405e-09
-4.59351e-11
3.8345e-09
-4.78727e-11
3.87067e-09
-5.68481e-11
3.9071e-09
-5.73172e-11
3.96243e-09
-8.69699e-11
4.01157e-09
-7.73842e-11
4.16275e-09
-2.39023e-10
4.37392e-09
-3.41112e-10
-1.59088e-08
1.03933e-08
2.5005e-08
1.18255e-06
1.46809e-08
1.91186e-08
1.19171e-08
5.08238e-09
1.06053e-08
2.4098e-09
9.86729e-09
1.35502e-09
9.32368e-09
9.98578e-10
8.8857e-09
8.04687e-10
8.53849e-09
6.37878e-10
8.25783e-09
5.15584e-10
8.02304e-09
4.31335e-10
7.82301e-09
3.67479e-10
7.65079e-09
3.1639e-10
7.50087e-09
2.75413e-10
7.36904e-09
2.42192e-10
7.25215e-09
2.14731e-10
7.1478e-09
1.91705e-10
7.05407e-09
1.72199e-10
6.96942e-09
1.55519e-10
6.8926e-09
1.41128e-10
6.82259e-09
1.28612e-10
6.75855e-09
1.17651e-10
6.69977e-09
1.0799e-10
6.64565e-09
9.94221e-11
6.59569e-09
9.17817e-11
6.54946e-09
8.49307e-11
6.50659e-09
7.87548e-11
6.46677e-09
7.31573e-11
6.42972e-09
6.80559e-11
6.39522e-09
6.33794e-11
6.36307e-09
5.90655e-11
6.3331e-09
5.5059e-11
6.30516e-09
5.13104e-11
6.27916e-09
4.77749e-11
6.25498e-09
4.44114e-11
6.23256e-09
4.11819e-11
6.21184e-09
3.80512e-11
6.19279e-09
3.49866e-11
6.17539e-09
3.19573e-11
6.15963e-09
2.8935e-11
6.14553e-09
2.58932e-11
6.1331e-09
2.28076e-11
6.12239e-09
1.9656e-11
6.11343e-09
1.64183e-11
6.1063e-09
1.30766e-11
6.10104e-09
9.61556e-12
6.09774e-09
6.02124e-12
6.09647e-09
2.28323e-12
6.09731e-09
-1.60907e-12
6.10036e-09
-5.66116e-12
6.1057e-09
-9.88172e-12
6.11342e-09
-1.42705e-11
6.12362e-09
-1.88372e-11
6.1364e-09
-2.35753e-11
6.15185e-09
-2.85031e-11
6.17008e-09
-3.36057e-11
6.19119e-09
-3.89192e-11
6.21528e-09
-4.44093e-11
6.24249e-09
-5.01495e-11
6.27291e-09
-5.60728e-11
6.30672e-09
-6.23126e-11
6.34404e-09
-6.87751e-11
6.38505e-09
-7.55762e-11
6.43014e-09
-8.30959e-11
6.46229e-09
-5.92397e-11
6.4953e-09
-6.08363e-11
6.5292e-09
-6.24688e-11
6.56412e-09
-6.43597e-11
6.59999e-09
-6.60944e-11
6.63677e-09
-6.77964e-11
6.67448e-09
-6.94982e-11
6.71311e-09
-7.11919e-11
6.7527e-09
-7.29863e-11
6.79328e-09
-7.48076e-11
6.835e-09
-7.68941e-11
6.87786e-09
-7.90304e-11
6.92222e-09
-8.1781e-11
6.96804e-09
-8.44976e-11
7.01615e-09
-8.8732e-11
7.0662e-09
-9.23194e-11
7.12056e-09
-1.00293e-10
7.1772e-09
-1.04518e-10
7.24436e-09
-1.24e-10
7.31216e-09
-1.25125e-10
7.41449e-09
-1.89297e-10
7.50646e-09
-1.69357e-10
7.7807e-09
-5.13263e-10
8.15357e-09
-7.13985e-10
-2.26608e-08
1.49056e-08
4.29069e-08
1.64011e-06
2.53476e-08
3.66779e-08
2.05843e-08
9.84564e-09
1.83188e-08
4.67538e-09
1.70432e-08
2.63058e-09
1.61044e-08
1.93742e-09
1.53482e-08
1.56082e-09
1.47487e-08
1.23742e-09
1.4264e-08
1.00023e-09
1.38586e-08
8.36757e-10
1.35132e-08
7.1287e-10
1.32159e-08
6.13766e-10
1.2957e-08
5.34275e-10
1.27294e-08
4.69828e-10
1.25275e-08
4.16558e-10
1.23473e-08
3.71889e-10
1.21855e-08
3.3405e-10
1.20393e-08
3.01693e-10
1.19067e-08
2.73774e-10
1.17858e-08
2.49495e-10
1.16752e-08
2.28232e-10
1.15737e-08
2.0949e-10
1.14803e-08
1.9287e-10
1.1394e-08
1.78049e-10
1.13142e-08
1.64759e-10
1.12401e-08
1.52779e-10
1.11714e-08
1.41921e-10
1.11074e-08
1.32025e-10
1.10478e-08
1.22954e-10
1.09923e-08
1.14587e-10
1.09406e-08
1.06816e-10
1.08923e-08
9.95462e-11
1.08474e-08
9.26902e-11
1.08057e-08
8.61683e-11
1.07669e-08
7.9907e-11
1.07311e-08
7.38382e-11
1.06982e-08
6.78982e-11
1.06682e-08
6.20278e-11
1.06409e-08
5.61718e-11
1.06165e-08
5.02791e-11
1.0595e-08
4.43025e-11
1.05765e-08
3.8199e-11
1.0561e-08
3.19301e-11
1.05486e-08
2.54606e-11
1.05395e-08
1.87611e-11
1.05337e-08
1.18046e-11
1.05314e-08
4.5708e-12
1.05327e-08
-2.96066e-12
1.05379e-08
-1.08005e-11
1.0547e-08
-1.89654e-11
1.05601e-08
-2.74549e-11
1.05776e-08
-3.62878e-11
1.05995e-08
-4.54514e-11
1.06259e-08
-5.49809e-11
1.06572e-08
-6.48475e-11
1.06934e-08
-7.51208e-11
1.07347e-08
-8.57347e-11
1.07814e-08
-9.68309e-11
1.08336e-08
-1.08279e-10
1.08916e-08
-1.20338e-10
1.09557e-08
-1.32826e-10
1.10261e-08
-1.45967e-10
1.11035e-08
-1.60482e-10
1.11586e-08
-1.14409e-10
1.12153e-08
-1.17504e-10
1.12735e-08
-1.20653e-10
1.13334e-08
-1.24296e-10
1.1395e-08
-1.27642e-10
1.14581e-08
-1.30923e-10
1.15228e-08
-1.34202e-10
1.15891e-08
-1.37464e-10
1.1657e-08
-1.40918e-10
1.17266e-08
-1.44423e-10
1.17982e-08
-1.48436e-10
1.18717e-08
-1.52545e-10
1.19477e-08
-1.57827e-10
1.20263e-08
-1.63053e-10
1.21087e-08
-1.71173e-10
1.21945e-08
-1.78086e-10
1.22875e-08
-1.93338e-10
1.23846e-08
-2.01564e-10
1.24992e-08
-2.38676e-10
1.26155e-08
-2.41428e-10
1.27893e-08
-3.63062e-10
1.29483e-08
-3.28327e-10
1.34027e-08
-9.67656e-10
1.40062e-08
-1.31753e-09
-3.0103e-08
2.14484e-08
7.01306e-08
2.18776e-06
4.17364e-08
6.50721e-08
3.39099e-08
1.76721e-08
3.01786e-08
8.40673e-09
2.80756e-08
4.73357e-09
2.65292e-08
3.48382e-09
2.52843e-08
2.80569e-09
2.42971e-08
2.22467e-09
2.34989e-08
1.79837e-09
2.28313e-08
1.50438e-09
2.22626e-08
1.28162e-09
2.17729e-08
1.10346e-09
2.13466e-08
9.60548e-10
2.09718e-08
8.4468e-10
2.06394e-08
7.48907e-10
2.03427e-08
6.68598e-10
2.00762e-08
6.0057e-10
1.98355e-08
5.42397e-10
1.9617e-08
4.92204e-10
1.9418e-08
4.48554e-10
1.92359e-08
4.10326e-10
1.90687e-08
3.76631e-10
1.89149e-08
3.46752e-10
1.87728e-08
3.20106e-10
1.86414e-08
2.96214e-10
1.85195e-08
2.74676e-10
1.84062e-08
2.55156e-10
1.83009e-08
2.37368e-10
1.82028e-08
2.21061e-10
1.81113e-08
2.06021e-10
1.80261e-08
1.92054e-10
1.79467e-08
1.78988e-10
1.78727e-08
1.66668e-10
1.78039e-08
1.54949e-10
1.77401e-08
1.437e-10
1.76811e-08
1.32798e-10
1.76269e-08
1.2213e-10
1.75773e-08
1.11589e-10
1.75324e-08
1.01076e-10
1.74922e-08
9.04992e-11
1.74568e-08
7.97742e-11
1.74261e-08
6.88236e-11
1.74005e-08
5.75783e-11
1.738e-08
4.59755e-11
1.73648e-08
3.39624e-11
1.73551e-08
2.14903e-11
1.73511e-08
8.52309e-12
1.73531e-08
-4.9758e-12
1.73614e-08
-1.90255e-11
1.73761e-08
-3.3656e-11
1.73975e-08
-4.88665e-11
1.74259e-08
-6.46904e-11
1.74615e-08
-8.11049e-11
1.75047e-08
-9.81729e-11
1.75557e-08
-1.15843e-10
1.76148e-08
-1.34238e-10
1.76823e-08
-1.53242e-10
1.77586e-08
-1.73106e-10
1.78439e-08
-1.93599e-10
1.79388e-08
-2.15179e-10
1.80435e-08
-2.37525e-10
1.81585e-08
-2.61035e-10
1.8285e-08
-2.86978e-10
1.83752e-08
-2.04592e-10
1.84679e-08
-2.10147e-10
1.8563e-08
-2.15771e-10
1.8661e-08
-2.22268e-10
1.87615e-08
-2.28241e-10
1.88647e-08
-2.34094e-10
1.89705e-08
-2.39941e-10
1.90788e-08
-2.45757e-10
1.91897e-08
-2.51908e-10
1.93035e-08
-2.5815e-10
1.94203e-08
-2.65284e-10
1.95404e-08
-2.72599e-10
1.96645e-08
-2.81976e-10
1.97927e-08
-2.91283e-10
1.99272e-08
-3.05662e-10
2.00672e-08
-3.1802e-10
2.02188e-08
-3.44922e-10
2.0377e-08
-3.59859e-10
2.05633e-08
-4.24937e-10
2.07533e-08
-4.31414e-10
2.10334e-08
-6.43209e-10
2.12954e-08
-5.90251e-10
2.20062e-08
-1.67846e-09
2.2929e-08
-2.24031e-09
-3.81298e-08
3.09557e-08
1.10996e-07
2.84161e-06
6.66389e-08
1.09429e-07
5.41736e-08
3.01374e-08
4.82143e-08
1.4366e-08
4.48514e-08
8.09652e-09
4.23813e-08
5.95385e-09
4.0394e-08
4.79302e-09
3.88176e-08
3.80109e-09
3.7543e-08
3.07294e-09
3.64769e-08
2.57046e-09
3.55688e-08
2.1898e-09
3.47868e-08
1.8854e-09
3.41062e-08
1.64122e-09
3.35076e-08
1.44324e-09
3.29769e-08
1.2796e-09
3.25031e-08
1.14238e-09
3.20775e-08
1.02615e-09
3.16932e-08
9.26753e-10
3.13444e-08
8.40993e-10
3.10265e-08
7.66412e-10
3.07358e-08
7.01096e-10
3.04689e-08
6.43525e-10
3.02231e-08
5.92473e-10
2.99963e-08
5.46946e-10
2.97864e-08
5.06125e-10
2.95917e-08
4.69327e-10
2.94109e-08
4.35978e-10
2.92427e-08
4.05587e-10
2.9086e-08
3.7773e-10
2.894e-08
3.52037e-10
2.88039e-08
3.2818e-10
2.8677e-08
3.05865e-10
2.85589e-08
2.84824e-10
2.8449e-08
2.64814e-10
2.83471e-08
2.4561e-10
2.82529e-08
2.27003e-10
2.81662e-08
2.08798e-10
2.8087e-08
1.90814e-10
2.80152e-08
1.72882e-10
2.79508e-08
1.54846e-10
2.7894e-08
1.36562e-10
2.7845e-08
1.17898e-10
2.78038e-08
9.87364e-11
2.77708e-08
7.897e-11
2.77463e-08
5.85087e-11
2.77305e-08
3.727e-11
2.77238e-08
1.51924e-11
2.77266e-08
-7.78666e-12
2.77393e-08
-3.16996e-11
2.77622e-08
-5.65973e-11
2.77959e-08
-8.24783e-11
2.78406e-08
-1.09399e-10
2.78968e-08
-1.37322e-10
2.7965e-08
-1.66351e-10
2.80455e-08
-1.96401e-10
2.8139e-08
-2.2768e-10
2.82457e-08
-2.59989e-10
2.83664e-08
-2.93752e-10
2.85013e-08
-3.28583e-10
2.86514e-08
-3.65249e-10
2.88171e-08
-4.03214e-10
2.89992e-08
-4.43144e-10
2.91994e-08
-4.87159e-10
2.93421e-08
-3.4731e-10
2.94887e-08
-3.5678e-10
2.96393e-08
-3.66314e-10
2.97943e-08
-3.77304e-10
2.99535e-08
-3.87423e-10
3.01167e-08
-3.97333e-10
3.0284e-08
-4.07223e-10
3.04553e-08
-4.17057e-10
3.06308e-08
-4.27444e-10
3.08107e-08
-4.37991e-10
3.09954e-08
-4.50013e-10
3.11852e-08
-4.62366e-10
3.13813e-08
-4.78132e-10
3.15839e-08
-4.93865e-10
3.17962e-08
-5.17962e-10
3.20172e-08
-5.38953e-10
3.2256e-08
-5.83805e-10
3.25059e-08
-6.09695e-10
3.27983e-08
-7.17359e-10
3.30986e-08
-7.31751e-10
3.35343e-08
-1.07889e-09
3.39519e-08
-1.00787e-09
3.50176e-08
-2.74415e-09
3.63694e-08
-3.59215e-09
-4.6556e-08
4.47957e-08
1.71673e-07
3.61975e-06
1.04151e-07
1.76951e-07
8.47259e-08
4.95628e-08
7.54095e-08
2.36824e-08
7.01438e-08
1.33622e-08
6.62816e-08
9.81609e-09
6.31763e-08
7.89837e-09
6.07123e-08
6.26507e-09
5.87198e-08
5.0654e-09
5.70534e-08
4.23686e-09
5.56339e-08
3.60931e-09
5.44117e-08
3.10761e-09
5.33478e-08
2.70516e-09
5.24122e-08
2.37883e-09
5.15827e-08
2.1091e-09
5.08421e-08
1.88294e-09
5.01769e-08
1.69136e-09
4.95761e-08
1.52753e-09
4.9031e-08
1.38617e-09
4.85341e-08
1.26324e-09
4.80796e-08
1.15559e-09
4.76625e-08
1.0607e-09
4.72784e-08
9.76554e-10
4.69238e-08
9.01516e-10
4.65957e-08
8.34235e-10
4.62914e-08
7.73587e-10
4.60088e-08
7.18625e-10
4.57458e-08
6.68539e-10
4.55009e-08
6.22633e-10
4.52727e-08
5.80296e-10
4.50599e-08
5.40988e-10
4.48615e-08
5.04224e-10
4.46768e-08
4.69565e-10
4.4505e-08
4.3661e-10
4.43456e-08
4.0499e-10
4.41982e-08
3.74358e-10
4.40626e-08
3.44398e-10
4.39386e-08
3.14809e-10
4.38262e-08
2.85315e-10
4.37254e-08
2.55658e-10
4.36364e-08
2.25603e-10
4.35593e-08
1.94933e-10
4.34946e-08
1.63453e-10
4.34426e-08
1.3099e-10
4.34037e-08
9.73932e-11
4.33784e-08
6.25288e-11
4.33673e-08
2.62952e-11
4.3371e-08
-1.14097e-11
4.33899e-08
-5.06396e-11
4.34248e-08
-9.14773e-11
4.34762e-08
-1.33921e-10
4.35449e-08
-1.78062e-10
4.36314e-08
-2.23839e-10
4.37365e-08
-2.71421e-10
4.38607e-08
-3.20669e-10
4.4005e-08
-3.7192e-10
4.41698e-08
-4.24853e-10
4.43562e-08
-4.80152e-10
4.45649e-08
-5.37195e-10
4.47968e-08
-5.97218e-10
4.5053e-08
-6.59367e-10
4.53345e-08
-7.24704e-10
4.5644e-08
-7.96629e-10
4.58647e-08
-5.67953e-10
4.60914e-08
-5.83515e-10
4.63242e-08
-5.99083e-10
4.65638e-08
-6.16978e-10
4.68099e-08
-6.33485e-10
4.70622e-08
-6.49635e-10
4.73207e-08
-6.65736e-10
4.75854e-08
-6.81745e-10
4.78566e-08
-6.98618e-10
4.81343e-08
-7.15765e-10
4.84196e-08
-7.35247e-10
4.87125e-08
-7.55322e-10
4.90152e-08
-7.80793e-10
4.93277e-08
-8.06394e-10
4.96549e-08
-8.45163e-10
4.99955e-08
-8.79522e-10
5.03629e-08
-9.51206e-10
5.07478e-08
-9.94615e-10
5.11954e-08
-1.165e-09
5.16589e-08
-1.1952e-09
5.23179e-08
-1.73793e-09
5.29673e-08
-1.65723e-09
5.45097e-08
-4.28656e-09
5.64215e-08
-5.50392e-09
-5.51066e-08
6.4972e-08
2.60909e-07
4.54211e-06
1.60267e-07
2.77593e-07
1.30479e-07
7.93499e-08
1.16139e-07
3.80227e-08
1.08019e-07
2.14825e-08
1.02073e-07
1.57624e-08
9.72954e-08
1.26755e-08
9.35037e-08
1.00568e-08
9.0437e-08
8.13205e-09
8.78725e-08
6.80139e-09
8.5688e-08
5.7938e-09
8.38071e-08
4.98852e-09
8.21698e-08
4.3425e-09
8.073e-08
3.81864e-09
7.94534e-08
3.38565e-09
7.83138e-08
3.0226e-09
7.72901e-08
2.71507e-09
7.63655e-08
2.45208e-09
7.55265e-08
2.22517e-09
7.47619e-08
2.02784e-09
7.40625e-08
1.85503e-09
7.34205e-08
1.70271e-09
7.28294e-08
1.56764e-09
7.22837e-08
1.44719e-09
7.17787e-08
1.33919e-09
7.13105e-08
1.24184e-09
7.08755e-08
1.15362e-09
7.04708e-08
1.07324e-09
7.00939e-08
9.99562e-10
6.97425e-08
9.31622e-10
6.9415e-08
8.68549e-10
6.91096e-08
8.09568e-10
6.88252e-08
7.53974e-10
6.85607e-08
7.01125e-10
6.83153e-08
6.50428e-10
6.80883e-08
6.01332e-10
6.78794e-08
5.53325e-10
6.76882e-08
5.05931e-10
6.75149e-08
4.58706e-10
6.73593e-08
4.11238e-10
6.72217e-08
3.63151e-10
6.71026e-08
3.14096e-10
6.70022e-08
2.63766e-10
6.69214e-08
2.11878e-10
6.68606e-08
1.58198e-10
6.68206e-08
1.02508e-10
6.68022e-08
4.46469e-11
6.68064e-08
-1.55486e-11
6.68339e-08
-7.81641e-11
6.68857e-08
-1.43331e-10
6.69629e-08
-2.11047e-10
6.70663e-08
-2.81456e-10
6.71969e-08
-3.5446e-10
6.73558e-08
-4.30327e-10
6.75439e-08
-5.08837e-10
6.77625e-08
-5.90515e-10
6.80126e-08
-6.74865e-10
6.82954e-08
-7.6295e-10
6.8612e-08
-8.53809e-10
6.89641e-08
-9.49362e-10
6.9353e-08
-1.0483e-09
6.97806e-08
-1.15225e-09
7.02505e-08
-1.26651e-09
7.05855e-08
-9.02977e-10
7.09298e-08
-9.2786e-10
7.12833e-08
-9.52571e-10
7.16472e-08
-9.80872e-10
7.20208e-08
-1.00703e-09
7.24037e-08
-1.03261e-09
7.27961e-08
-1.05806e-09
7.31977e-08
-1.08337e-09
7.36091e-08
-1.10998e-09
7.40303e-08
-1.13705e-09
7.44628e-08
-1.16767e-09
7.49068e-08
-1.19934e-09
7.53652e-08
-1.23923e-09
7.58385e-08
-1.27968e-09
7.63334e-08
-1.34008e-09
7.68486e-08
-1.39475e-09
7.74029e-08
-1.50549e-09
7.79848e-08
-1.57647e-09
7.86562e-08
-1.83645e-09
7.93577e-08
-1.89664e-09
8.03316e-08
-2.71187e-09
8.132e-08
-2.6456e-09
8.3482e-08
-6.44854e-09
8.61032e-08
-8.12514e-09
-6.34186e-08
9.44153e-08
3.90988e-07
5.62974e-06
2.43723e-07
4.24858e-07
1.98618e-07
1.24455e-07
1.76804e-07
5.9837e-08
1.64423e-07
3.38636e-08
1.55374e-07
2.48111e-08
1.48112e-07
1.99377e-08
1.42346e-07
1.58234e-08
1.37681e-07
1.27969e-08
1.3378e-07
1.0702e-08
1.30458e-07
9.11614e-09
1.27597e-07
7.84921e-09
1.25107e-07
6.83278e-09
1.22917e-07
6.00848e-09
1.20975e-07
5.32719e-09
1.19242e-07
4.75595e-09
1.17685e-07
4.27206e-09
1.16279e-07
3.85826e-09
1.15003e-07
3.50123e-09
1.1384e-07
3.19075e-09
1.12776e-07
2.91884e-09
1.118e-07
2.67917e-09
1.10901e-07
2.46665e-09
1.10071e-07
2.27714e-09
1.09303e-07
2.10722e-09
1.0859e-07
1.95406e-09
1.07929e-07
1.81527e-09
1.07313e-07
1.68881e-09
1.0674e-07
1.57292e-09
1.06205e-07
1.46606e-09
1.05707e-07
1.36687e-09
1.05243e-07
1.27413e-09
1.0481e-07
1.18674e-09
1.04407e-07
1.10368e-09
1.04034e-07
1.02403e-09
1.03688e-07
9.46917e-10
1.0337e-07
8.71549e-10
1.03079e-07
7.97173e-10
1.02814e-07
7.23095e-10
1.02577e-07
6.4867e-10
1.02367e-07
5.73308e-10
1.02184e-07
4.96464e-10
1.0203e-07
4.17655e-10
1.01906e-07
3.36442e-10
1.01812e-07
2.52455e-10
1.01749e-07
1.65355e-10
1.01718e-07
7.4889e-11
1.01722e-07
-1.91969e-11
1.01761e-07
-1.17038e-10
1.01836e-07
-2.18836e-10
1.0195e-07
-3.24591e-10
1.02103e-07
-4.34522e-10
1.02297e-07
-5.48481e-10
1.02534e-07
-6.66873e-10
1.02814e-07
-7.89366e-10
1.0314e-07
-9.16757e-10
1.03514e-07
-1.0483e-09
1.03936e-07
-1.1856e-09
1.0441e-07
-1.32721e-09
1.04937e-07
-1.47603e-09
1.05518e-07
-1.63014e-09
1.06158e-07
-1.79193e-09
1.06861e-07
-1.96943e-09
1.07362e-07
-1.40419e-09
1.07877e-07
-1.44314e-09
1.08406e-07
-1.4815e-09
1.08951e-07
-1.52523e-09
1.09509e-07
-1.56576e-09
1.10082e-07
-1.60532e-09
1.10669e-07
-1.64464e-09
1.11269e-07
-1.68372e-09
1.11884e-07
-1.72468e-09
1.12513e-07
-1.7664e-09
1.13159e-07
-1.81336e-09
1.13822e-07
-1.86214e-09
1.14505e-07
-1.92301e-09
1.15211e-07
-1.98542e-09
1.15948e-07
-2.07698e-09
1.16715e-07
-2.16202e-09
1.17538e-07
-2.32819e-09
1.18403e-07
-2.44191e-09
1.19393e-07
-2.82601e-09
1.20437e-07
-2.94056e-09
1.21846e-07
-4.12097e-09
1.23321e-07
-4.12012e-09
1.26257e-07
-9.38548e-09
1.29752e-07
-1.16193e-08
-7.10671e-08
1.374e-07
5.78991e-07
6.90365e-06
3.67214e-07
6.36635e-07
2.9962e-07
1.92049e-07
2.66743e-07
9.2714e-08
2.48031e-07
5.25758e-08
2.34386e-07
3.84554e-08
2.23449e-07
3.08752e-08
2.1476e-07
2.45126e-08
2.07729e-07
1.98277e-08
2.01851e-07
1.65801e-08
1.96844e-07
1.41226e-08
1.92533e-07
1.21602e-08
1.8878e-07
1.05856e-08
1.8548e-07
9.30852e-09
1.82554e-07
8.25304e-09
1.79942e-07
7.36808e-09
1.77596e-07
6.61843e-09
1.75477e-07
5.97737e-09
1.73554e-07
5.42427e-09
1.71801e-07
4.94326e-09
1.70198e-07
4.52202e-09
1.68727e-07
4.15073e-09
1.67372e-07
3.8215e-09
1.66121e-07
3.52792e-09
1.64963e-07
3.26469e-09
1.6389e-07
3.02744e-09
1.62893e-07
2.81246e-09
1.61965e-07
2.61659e-09
1.61101e-07
2.43711e-09
1.60295e-07
2.27163e-09
1.59544e-07
2.11806e-09
1.58844e-07
1.97451e-09
1.58191e-07
1.83926e-09
1.57584e-07
1.71077e-09
1.57021e-07
1.58759e-09
1.56499e-07
1.4684e-09
1.56019e-07
1.35195e-09
1.55579e-07
1.23709e-09
1.55179e-07
1.12276e-09
1.5482e-07
1.00795e-09
1.54501e-07
8.91761e-10
1.54224e-07
7.73352e-10
1.5399e-07
6.51978e-10
1.538e-07
5.26965e-10
1.53654e-07
3.97742e-10
1.53556e-07
2.63788e-10
1.53506e-07
1.24715e-10
1.53507e-07
-1.9868e-11
1.5356e-07
-1.70168e-10
1.53667e-07
-3.26495e-10
1.53832e-07
-4.88848e-10
1.54055e-07
-6.57557e-10
1.54339e-07
-8.324e-10
1.54686e-07
-1.01398e-09
1.55098e-07
-1.20181e-09
1.55579e-07
-1.39706e-09
1.56129e-07
-1.59863e-09
1.56752e-07
-1.80891e-09
1.57451e-07
-2.02577e-09
1.58228e-07
-2.25349e-09
1.59087e-07
-2.4893e-09
1.60032e-07
-2.73664e-09
1.6107e-07
-3.00739e-09
1.6181e-07
-2.14434e-09
1.62571e-07
-2.20429e-09
1.63353e-07
-2.26275e-09
1.64156e-07
-2.32901e-09
1.64981e-07
-2.39061e-09
1.65827e-07
-2.45065e-09
1.66692e-07
-2.5102e-09
1.67578e-07
-2.56937e-09
1.68484e-07
-2.63113e-09
1.69412e-07
-2.69415e-09
1.70363e-07
-2.76462e-09
1.71339e-07
-2.83822e-09
1.72345e-07
-2.92902e-09
1.73383e-07
-3.02336e-09
1.74465e-07
-3.15883e-09
1.75592e-07
-3.28851e-09
1.76795e-07
-3.53129e-09
1.78063e-07
-3.71027e-09
1.79498e-07
-4.26071e-09
1.81027e-07
-4.46967e-09
1.83024e-07
-6.11808e-09
1.85179e-07
-6.27519e-09
1.89043e-07
-1.32492e-08
1.93581e-07
-1.61575e-08
-7.76203e-08
2.00134e-07
8.4837e-07
8.38256e-06
5.49077e-07
9.35928e-07
4.48717e-07
2.92409e-07
3.99545e-07
1.41886e-07
3.71461e-07
8.06594e-08
3.51039e-07
5.8878e-08
3.34691e-07
4.72226e-08
3.21696e-07
3.75076e-08
3.11178e-07
3.0346e-08
3.02385e-07
2.53727e-08
2.94897e-07
2.16108e-08
2.88449e-07
1.86083e-08
2.82836e-07
1.6199e-08
2.779e-07
1.42447e-08
2.73523e-07
1.26295e-08
2.69616e-07
1.12753e-08
2.66106e-07
1.01282e-08
2.62936e-07
9.1472e-09
2.6006e-07
8.3008e-09
2.57438e-07
7.56475e-09
2.5504e-07
6.92015e-09
2.52839e-07
6.35199e-09
2.50812e-07
5.8482e-09
2.48941e-07
5.39895e-09
2.4721e-07
4.99618e-09
2.45604e-07
4.63317e-09
2.44112e-07
4.30425e-09
2.42724e-07
4.0046e-09
2.41431e-07
3.73005e-09
2.40226e-07
3.47696e-09
2.39102e-07
3.24213e-09
2.38054e-07
3.02268e-09
2.37077e-07
2.81599e-09
2.36168e-07
2.6197e-09
2.35324e-07
2.43161e-09
2.34543e-07
2.2497e-09
2.33823e-07
2.07208e-09
2.33163e-07
1.89699e-09
2.32563e-07
1.72282e-09
2.32022e-07
1.54804e-09
2.31543e-07
1.37128e-09
2.31125e-07
1.19126e-09
2.3077e-07
1.00685e-09
2.3048e-07
8.17029e-10
2.30257e-07
6.20928e-10
2.30103e-07
4.17759e-10
2.30021e-07
2.06929e-10
2.30013e-07
-1.21484e-11
2.30083e-07
-2.39792e-10
2.30233e-07
-4.76463e-10
2.30466e-07
-7.22167e-10
2.30786e-07
-9.77386e-10
2.31195e-07
-1.2418e-09
2.31697e-07
-1.51628e-09
2.32296e-07
-1.80012e-09
2.32994e-07
-2.09502e-09
2.33794e-07
-2.3994e-09
2.34702e-07
-2.7167e-09
2.3572e-07
-3.04391e-09
2.36854e-07
-3.38713e-09
2.38107e-07
-3.74257e-09
2.39486e-07
-4.11498e-09
2.41e-07
-4.52153e-09
2.4208e-07
-3.22413e-09
2.4319e-07
-3.31509e-09
2.4433e-07
-3.40281e-09
2.45503e-07
-3.50151e-09
2.46706e-07
-3.59359e-09
2.47938e-07
-3.68317e-09
2.492e-07
-3.77179e-09
2.5049e-07
-3.85981e-09
2.51811e-07
-3.95125e-09
2.53161e-07
-4.04472e-09
2.54545e-07
-4.1484e-09
2.55964e-07
-4.25738e-09
2.57425e-07
-4.39001e-09
2.58932e-07
-4.52995e-09
2.60499e-07
-4.72585e-09
2.6213e-07
-4.92003e-09
2.63865e-07
-5.2657e-09
2.65697e-07
-5.54243e-09
2.67744e-07
-6.30755e-09
2.69947e-07
-6.67342e-09
2.72719e-07
-8.88994e-09
2.75799e-07
-9.35519e-09
2.80714e-07
-1.81643e-08
2.86466e-07
-2.19089e-08
-8.27288e-08
2.91574e-07
1.23083e-06
1.00794e-05
8.15613e-07
1.35114e-06
6.67967e-07
4.40056e-07
5.94916e-07
2.14936e-07
5.53014e-07
1.22562e-07
5.22636e-07
8.92564e-08
4.98361e-07
7.14974e-08
4.7905e-07
5.68183e-08
4.63413e-07
4.59831e-08
4.50344e-07
3.84421e-08
4.39214e-07
3.27406e-08
4.2963e-07
2.81927e-08
4.21286e-07
2.4543e-08
4.13948e-07
2.1582e-08
4.07443e-07
1.9135e-08