/*--------------------------------*- C++ -*----------------------------------*\
| =========                 |                                                 |
| \\      /  F ield         | OpenFOAM: The Open Source CFD Toolbox           |
|  \\    /   O peration     | Version:  2506                                  |
|   \\  /    A nd           | Website:  www.openfoam.com                      |
|    \\/     M anipulation  |                                                 |
\*---------------------------------------------------------------------------*/
FoamFile
{
    version     2.0;
    format      ascii;
    arch        "LSB;label=32;scalar=64";
    class       surfaceScalarField;
    location    "2000";
    object      phi;
}
// * * * * * * * * * * * * * * * * * * * * * * * * * * * * * * * * * * * * * //

dimensions      [0 3 -1 0 0 0 0];

oriented        oriented;

internalField   nonuniform List<scalar> 
40747
(
1.50831e-05
-2.02555e-07
7.45624e-06
7.62681e-06
1.82584e-05
-4.59619e-07
1.64274e-05
9.28728e-06
2.21066e-05
-7.89466e-07
2.72093e-05
1.13247e-05
2.6772e-05
-1.2176e-06
4.01502e-05
1.38312e-05
3.24311e-05
-1.7798e-06
5.56571e-05
1.69242e-05
3.92994e-05
-2.52643e-06
7.42024e-05
2.07541e-05
4.76403e-05
-3.52839e-06
9.63279e-05
2.55147e-05
5.77767e-05
-4.88543e-06
0.000122647
3.14571e-05
7.01046e-05
-6.73757e-06
0.000153844
3.89082e-05
8.51097e-05
-9.28041e-06
0.000190658
4.82955e-05
0.000103388
-1.27853e-05
0.000233866
6.01799e-05
0.000125671
-1.76251e-05
0.000284241
7.52972e-05
0.000152853
-2.43051e-05
0.000342481
9.46128e-05
0.000186023
-3.34978e-05
0.000409117
0.000119387
0.000226494
-4.60761e-05
0.000484357
0.000151254
0.000275837
-6.31332e-05
0.000567888
0.000192306
0.000335889
-8.5969e-05
0.000658602
0.000245176
0.000408745
-0.000116005
0.000754258
0.000313089
0.000496703
-0.000154572
0.00085111
0.000399851
0.000602148
-0.000202501
0.000943547
0.000509711
0.000727381
-0.000259428
0.0010239
0.000647027
0.000874443
-0.000322805
0.00108266
0.000815683
0.00104512
-0.000386759
0.00110946
0.00101832
0.00124153
-0.000441345
0.00109523
0.00125577
0.00146783
-0.000473289
0.00103549
0.00152756
0.00173344
-0.000469698
0.000933857
0.00183507
0.00205665
-0.000425013
0.000802485
0.00218802
0.00246448
-0.000347455
0.000655834
0.00261113
0.0029842
-0.000256482
0.0004983
0.00314173
0.00363223
-0.000168585
0.000318532
0.00381199
0.00350033
-0.0001044
0.00015095
0.0036679
0.00350818
-4.80656e-05
-1.65308e-05
0.00367565
0.00350831
8.13237e-06
-0.000184063
0.00367584
0.00350102
7.16292e-05
-0.000351728
0.00366868
0.0035251
0.000153796
-0.000525045
0.00369842
0.00291721
0.000237457
-0.000676526
0.00306869
0.00242498
0.000308892
-0.000816017
0.00256446
0.00203379
0.000351854
-0.000940175
0.00215795
0.00172035
0.000359149
-0.00103686
0.00181703
0.00146125
0.000335115
-0.00109528
0.00151967
0.00124008
0.000290645
-0.0011117
0.00125649
0.00104792
0.000237348
-0.00108944
0.00102566
0.000880586
0.000184185
-0.00103626
0.000827407
0.00073591
0.000136605
-0.000961424
0.000661073
0.000612164
9.70596e-05
-0.000873718
0.000524458
0.000507452
6.59664e-05
-0.00078045
0.000414183
0.000419655
4.25921e-05
-0.000687137
0.000326341
0.000346558
2.56974e-05
-0.0005976
0.000257022
0.000286007
1.39362e-05
-0.000514247
0.000202654
0.000236012
6.06811e-06
-0.000438389
0.000160154
0.000194812
1.04825e-06
-0.000370544
0.000126966
0.000160888
-1.9533e-06
-0.000310685
0.00010103
0.000132961
-3.56855e-06
-0.000258441
8.07159e-05
0.00010996
-4.26304e-06
-0.000213234
6.47533e-05
9.10046e-05
-4.37015e-06
-0.000174389
5.21597e-05
7.53695e-05
-4.12252e-06
-0.000141199
4.21798e-05
6.24613e-05
-3.67829e-06
-0.000112972
3.42343e-05
5.17944e-05
-3.14192e-06
-8.90567e-05
2.78789e-05
4.29719e-05
-2.58003e-06
-6.88569e-05
2.27721e-05
3.56687e-05
-2.03318e-06
-5.18391e-05
1.86509e-05
2.96187e-05
-1.52429e-06
-3.75324e-05
1.53119e-05
2.46033e-05
-1.06468e-06
-2.55258e-05
1.25967e-05
2.04434e-05
-6.5827e-07
-1.54641e-05
1.03816e-05
1.6991e-05
-3.04456e-07
-7.04223e-06
8.56914e-06
1.41246e-05
7.08239e-06
3.13366e-08
7.59547e-06
2.16926e-08
9.64405e-09
1.83392e-08
3.35335e-09
1.70773e-08
1.26189e-09
1.62649e-08
8.12438e-10
1.56307e-08
6.34176e-10
1.51455e-08
4.85182e-10
1.47658e-08
3.79694e-10
1.44551e-08
3.10708e-10
1.41962e-08
2.58975e-10
1.39775e-08
2.18645e-10
1.37904e-08
1.87133e-10
1.36284e-08
1.61964e-10
1.3487e-08
1.41438e-10
1.33625e-08
1.24474e-10
1.32522e-08
1.10289e-10
1.31539e-08
9.82958e-11
1.30659e-08
8.80602e-11
1.29866e-08
7.92521e-11
1.2915e-08
7.1616e-11
1.285e-08
6.49512e-11
1.2791e-08
5.90979e-11
1.2737e-08
5.39273e-11
1.26877e-08
4.93343e-11
1.26425e-08
4.52315e-11
1.26009e-08
4.15457e-11
1.25627e-08
3.82144e-11
1.25275e-08
3.51838e-11
1.24951e-08
3.24061e-11
1.24653e-08
2.9839e-11
1.24378e-08
2.74438e-11
1.24126e-08
2.51847e-11
1.23896e-08
2.30285e-11
1.23687e-08
2.09434e-11
1.23498e-08
1.88992e-11
1.23329e-08
1.68667e-11
1.23181e-08
1.48178e-11
1.23054e-08
1.27251e-11
1.22948e-08
1.05625e-11
1.22865e-08
8.30464e-12
1.22806e-08
5.92744e-12
1.22772e-08
3.40814e-12
1.22764e-08
7.25736e-13
1.22786e-08
-2.13947e-12
1.22838e-08
-5.20398e-12
1.22923e-08
-8.48267e-12
1.23042e-08
-1.19901e-11
1.232e-08
-1.57389e-11
1.23397e-08
-1.9738e-11
1.23637e-08
-2.39961e-11
1.23922e-08
-2.85182e-11
1.24255e-08
-3.33126e-11
1.24639e-08
-3.83812e-11
1.25077e-08
-4.3737e-11
1.2557e-08
-4.93785e-11
1.26124e-08
-5.53342e-11
1.2674e-08
-6.15959e-11
1.27422e-08
-6.823e-11
1.28174e-08
-7.52101e-11
1.29001e-08
-8.26806e-11
1.29907e-08
-9.06008e-11
1.30899e-08
-9.91728e-11
1.31987e-08
-1.08794e-10
1.32762e-08
-7.75391e-11
1.33562e-08
-8.00101e-11
1.34388e-08
-8.26087e-11
1.35243e-08
-8.54641e-11
1.36126e-08
-8.83174e-11
1.37039e-08
-9.13312e-11
1.37984e-08
-9.45132e-11
1.38964e-08
-9.79466e-11
1.39981e-08
-1.01704e-10
1.4104e-08
-1.05881e-10
1.42146e-08
-1.10611e-10
1.43306e-08
-1.16038e-10
1.44531e-08
-1.22426e-10
1.4583e-08
-1.29959e-10
1.47223e-08
-1.39331e-10
1.48728e-08
-1.50481e-10
1.50388e-08
-1.65947e-10
1.5222e-08
-1.83229e-10
1.54363e-08
-2.1425e-10
1.56775e-08
-2.41235e-10
1.60082e-08
-3.30701e-10
1.64061e-08
-3.97956e-10
1.74133e-08
-1.00717e-09
2.02548e-08
-2.84151e-09
-2.3665e-07
2.56905e-07
1.21426e-07
1.67613e-05
8.41798e-08
4.68904e-08
7.1175e-08
1.63581e-08
6.62758e-08
6.16114e-09
6.31234e-08
3.96489e-09
6.0663e-08
3.09448e-09
5.87806e-08
2.36764e-09
5.73074e-08
1.85286e-09
5.6102e-08
1.51617e-09
5.50972e-08
1.26372e-09
5.42489e-08
1.06692e-09
5.35229e-08
9.13152e-10
5.28945e-08
7.9033e-10
5.23458e-08
6.90169e-10
5.18629e-08
6.07388e-10
5.1435e-08
5.38165e-10
5.10537e-08
4.79642e-10
5.0712e-08
4.29695e-10
5.04046e-08
3.86714e-10
5.01268e-08
3.49453e-10
4.98748e-08
3.1693e-10
4.96455e-08
2.88368e-10
4.94363e-08
2.63138e-10
4.92449e-08
2.40726e-10
4.90694e-08
2.20707e-10
4.89082e-08
2.02722e-10
4.876e-08
1.86468e-10
4.86235e-08
1.7168e-10
4.84978e-08
1.58127e-10
4.8382e-08
1.45602e-10
4.82756e-08
1.33915e-10
4.81778e-08
1.22893e-10
4.80885e-08
1.12374e-10
4.80072e-08
1.02202e-10
4.79339e-08
9.22298e-11
4.78685e-08
8.23157e-11
4.7811e-08
7.2322e-11
4.77616e-08
6.21159e-11
4.77206e-08
5.15692e-11
4.76883e-08
4.05587e-11
4.76653e-08
2.8967e-11
4.7652e-08
1.6683e-11
4.76491e-08
3.60444e-12
4.76573e-08
-1.03649e-11
4.76774e-08
-2.53052e-11
4.77102e-08
-4.12894e-11
4.77566e-08
-5.83879e-11
4.78176e-08
-7.66632e-11
4.7894e-08
-9.61578e-11
4.79869e-08
-1.16914e-10
4.80973e-08
-1.38957e-10
4.82263e-08
-1.62327e-10
4.8375e-08
-1.87033e-10
4.85444e-08
-2.13137e-10
4.87356e-08
-2.40633e-10
4.895e-08
-2.6966e-10
4.91885e-08
-3.00176e-10
4.94528e-08
-3.32509e-10
4.97441e-08
-3.66523e-10
5.00644e-08
-4.02933e-10
5.04153e-08
-4.4152e-10
5.07994e-08
-4.83299e-10
5.12208e-08
-5.30155e-10
5.15211e-08
-3.77834e-10
5.1831e-08
-3.89902e-10
5.21509e-08
-4.0254e-10
5.24819e-08
-4.16447e-10
5.28239e-08
-4.30336e-10
5.31776e-08
-4.45008e-10
5.35436e-08
-4.60496e-10
5.39228e-08
-4.77207e-10
5.43166e-08
-4.95491e-10
5.47266e-08
-5.15821e-10
5.51548e-08
-5.38838e-10
5.5604e-08
-5.65245e-10
5.60779e-08
-5.96331e-10
5.65809e-08
-6.32981e-10
5.71202e-08
-6.78596e-10
5.77025e-08
-7.32831e-10
5.83448e-08
-8.08167e-10
5.90537e-08
-8.92155e-10
5.98831e-08
-1.04368e-09
6.08164e-08
-1.17448e-09
6.20999e-08
-1.61419e-09
6.36426e-08
-1.94064e-09
6.75174e-08
-4.88198e-09
7.80492e-08
-1.33733e-08
-5.1586e-07
3.5726e-07
2.68693e-07
2.78173e-05
1.86526e-07
1.29057e-07
1.57736e-07
4.51488e-08
1.46874e-07
1.70226e-08
1.39889e-07
1.09501e-08
1.34438e-07
8.54487e-09
1.30268e-07
6.5382e-09
1.27004e-07
5.11668e-09
1.24333e-07
4.18681e-09
1.22108e-07
3.48967e-09
1.20228e-07
2.94621e-09
1.1862e-07
2.52157e-09
1.17228e-07
2.1824e-09
1.16012e-07
1.90581e-09
1.14942e-07
1.67722e-09
1.13994e-07
1.48606e-09
1.1315e-07
1.32445e-09
1.12393e-07
1.18653e-09
1.11712e-07
1.06784e-09
1.11096e-07
9.64948e-10
1.10538e-07
8.75142e-10
1.1003e-07
7.96272e-10
1.09567e-07
7.26603e-10
1.09143e-07
6.64715e-10
1.08754e-07
6.09435e-10
1.08397e-07
5.59773e-10
1.08068e-07
5.1489e-10
1.07766e-07
4.74058e-10
1.07487e-07
4.36636e-10
1.07231e-07
4.02052e-10
1.06995e-07
3.69785e-10
1.06779e-07
3.39355e-10
1.06581e-07
3.10313e-10
1.06401e-07
2.82231e-10
1.06238e-07
2.54704e-10
1.06093e-07
2.27337e-10
1.05966e-07
1.99753e-10
1.05856e-07
1.71585e-10
1.05765e-07
1.42478e-10
1.05694e-07
1.12093e-10
1.05643e-07
8.01064e-11
1.05613e-07
4.62111e-11
1.05607e-07
1.01248e-11
1.05625e-07
-2.84176e-11
1.05669e-07
-6.96377e-11
1.05742e-07
-1.13736e-10
1.05844e-07
-1.60908e-10
1.05979e-07
-2.11324e-10
1.06148e-07
-2.65103e-10
1.06353e-07
-3.22363e-10
1.06597e-07
-3.83168e-10
1.06883e-07
-4.47634e-10
1.07211e-07
-5.15781e-10
1.07586e-07
-5.87787e-10
1.08009e-07
-6.63627e-10
1.08483e-07
-7.4369e-10
1.09011e-07
-8.27856e-10
1.09595e-07
-9.17032e-10
1.1024e-07
-1.01084e-09
1.10948e-07
-1.11125e-09
1.11724e-07
-1.21765e-09
1.12574e-07
-1.33287e-09
1.13505e-07
-1.46202e-09
1.1417e-07
-1.04193e-09
1.14855e-07
-1.07525e-09
1.15562e-07
-1.11006e-09
1.16294e-07
-1.14838e-09
1.17051e-07
-1.18664e-09
1.17833e-07
-1.22706e-09
1.18642e-07
-1.26973e-09
1.1948e-07
-1.31576e-09
1.20351e-07
-1.36612e-09
1.21257e-07
-1.42211e-09
1.22204e-07
-1.4855e-09
1.23197e-07
-1.55822e-09
1.24245e-07
-1.64382e-09
1.25356e-07
-1.74474e-09
1.26548e-07
-1.87035e-09
1.27835e-07
-2.01972e-09
1.29254e-07
-2.2272e-09
1.3082e-07
-2.45868e-09
1.32653e-07
-2.87623e-09
1.34717e-07
-3.23824e-09
1.37555e-07
-4.45257e-09
1.40984e-07
-5.36905e-09
1.49479e-07
-1.33771e-08
1.71876e-07
-3.57708e-08
-8.43471e-07
4.99487e-07
5.02567e-07
4.11459e-05
3.4941e-07
2.82214e-07
2.95542e-07
9.90164e-08
2.75183e-07
3.73819e-08
2.62097e-07
2.4036e-08
2.51889e-07
1.87526e-08
2.44078e-07
1.43496e-08
2.37965e-07
1.12298e-08
2.32963e-07
9.18875e-09
2.28794e-07
7.65868e-09
2.25274e-07
6.46596e-09
2.22262e-07
5.53398e-09
2.19655e-07
4.78959e-09
2.17378e-07
4.18255e-09
2.15374e-07
3.68085e-09
2.13599e-07
3.26133e-09
2.12017e-07
2.90665e-09
2.10599e-07
2.60396e-09
2.09324e-07
2.34348e-09
2.08171e-07
2.11766e-09
2.07126e-07
1.92056e-09
2.06174e-07
1.74747e-09
2.05306e-07
1.59458e-09
2.04512e-07
1.45876e-09
2.03784e-07
1.33744e-09
2.03116e-07
1.22845e-09
2.02501e-07
1.12996e-09
2.01934e-07
1.04035e-09
2.01413e-07
9.58228e-10
2.00932e-07
8.82337e-10
2.00491e-07
8.11533e-10
2.00085e-07
7.44763e-10
1.99715e-07
6.8104e-10
1.99377e-07
6.1943e-10
1.99073e-07
5.59039e-10
1.98801e-07
4.99006e-10
1.98563e-07
4.385e-10
1.98357e-07
3.76717e-10
1.98187e-07
3.1288e-10
1.98053e-07
2.46245e-10
1.97957e-07
1.76101e-10
1.97901e-07
1.01776e-10
1.97889e-07
2.26514e-11
1.97922e-07
-6.18544e-11
1.98005e-07
-1.52227e-10
1.9814e-07
-2.48907e-10
1.98331e-07
-3.52321e-10
1.98583e-07
-4.62846e-10
1.98899e-07
-5.80737e-10
1.99282e-07
-7.06255e-10
1.99739e-07
-8.39544e-10
2.00272e-07
-9.80851e-10
2.00886e-07
-1.13022e-09
2.01587e-07
-1.28805e-09
2.02377e-07
-1.45428e-09
2.03263e-07
-1.62975e-09
2.0425e-07
-1.81422e-09
2.05342e-07
-2.00965e-09
2.06547e-07
-2.21522e-09
2.07871e-07
-2.43526e-09
2.09322e-07
-2.6684e-09
2.1091e-07
-2.92086e-09
2.12651e-07
-3.20374e-09
2.13892e-07
-2.28313e-09
2.15173e-07
-2.3562e-09
2.16496e-07
-2.43239e-09
2.17864e-07
-2.51626e-09
2.19277e-07
-2.60003e-09
2.20738e-07
-2.68851e-09
2.22251e-07
-2.78188e-09
2.23817e-07
-2.88261e-09
2.25444e-07
-2.9928e-09
2.27137e-07
-3.11531e-09
2.28906e-07
-3.25398e-09
2.30761e-07
-3.41307e-09
2.32717e-07
-3.60033e-09
2.34794e-07
-3.82113e-09
2.37019e-07
-4.09586e-09
2.39422e-07
-4.42278e-09
2.42071e-07
-4.87639e-09
2.44997e-07
-5.38402e-09
2.48417e-07
-6.29623e-09
2.52276e-07
-7.09749e-09
2.57573e-07
-9.74972e-09
2.64029e-07
-1.18251e-08
2.79686e-07
-2.90342e-08
3.19751e-07
-7.58351e-08
-1.22531e-06
7.01587e-07
8.66484e-07
5.72036e-05
6.035e-07
5.45198e-07
5.10598e-07
1.91919e-07
4.75406e-07
7.25738e-08
4.52802e-07
4.66402e-08
4.35175e-07
3.63791e-08
4.21686e-07
2.78391e-08
4.11128e-07
2.1787e-08
4.02491e-07
1.78265e-08
3.95291e-07
1.48579e-08
3.89213e-07
1.2544e-08
3.84012e-07
1.07359e-08
3.79509e-07
9.2917e-09
3.75578e-07
8.11402e-09
3.72118e-07
7.1407e-09
3.69053e-07
6.32681e-09
3.66321e-07
5.63873e-09
3.63873e-07
5.0515e-09
3.6167e-07
4.54616e-09
3.5968e-07
4.10808e-09
3.57875e-07
3.72572e-09
3.56232e-07
3.38993e-09
3.54734e-07
3.09331e-09
3.53362e-07
2.82983e-09
3.52105e-07
2.59449e-09
3.50951e-07
2.38307e-09
3.49889e-07
2.19199e-09
3.48911e-07
2.01817e-09
3.4801e-07
1.85887e-09
3.47181e-07
1.71167e-09
3.46418e-07
1.57433e-09
3.45718e-07
1.44483e-09
3.45078e-07
1.32124e-09
3.44496e-07
1.20176e-09
3.4397e-07
1.08465e-09
3.43501e-07
9.68252e-10
3.43088e-07
8.50942e-10
3.42734e-07
7.31167e-10
3.42439e-07
6.07421e-10
3.42207e-07
4.78262e-10
3.42041e-07
3.42313e-10
3.41945e-07
1.98271e-10
3.41922e-07
4.49365e-11
3.41979e-07
-1.18817e-10
3.42121e-07
-2.9393e-10
3.42353e-07
-4.81256e-10
3.42683e-07
-6.81621e-10
3.43115e-07
-8.95754e-10
3.43659e-07
-1.12415e-09
3.4432e-07
-1.36732e-09
3.45106e-07
-1.62553e-09
3.46024e-07
-1.89927e-09
3.47083e-07
-2.18862e-09
3.48289e-07
-2.49434e-09
3.49651e-07
-2.81632e-09
3.51177e-07
-3.1562e-09
3.52877e-07
-3.51347e-09
3.54759e-07
-3.89197e-09
3.56834e-07
-4.29008e-09
3.59115e-07
-4.71619e-09
3.61614e-07
-5.16762e-09
3.6435e-07
-5.65645e-09
3.6735e-07
-6.20394e-09
3.69488e-07
-4.4211e-09
3.71694e-07
-4.56268e-09
3.73972e-07
-4.71006e-09
3.76328e-07
-4.87224e-09
3.78762e-07
-5.03427e-09
3.81279e-07
-5.20535e-09
3.83883e-07
-5.38591e-09
3.86581e-07
-5.58065e-09
3.89382e-07
-5.79365e-09
3.92297e-07
-6.03044e-09
3.95342e-07
-6.29845e-09
3.98534e-07
-6.60592e-09
4.01902e-07
-6.96776e-09
4.05475e-07
-7.39451e-09
4.09305e-07
-7.92525e-09
4.13439e-07
-8.55747e-09
4.17996e-07
-9.43317e-09
4.2303e-07
-1.04177e-08
4.28909e-07
-1.21757e-08
4.35561e-07
-1.37497e-08
4.44663e-07
-1.88513e-08
4.55878e-07
-2.304e-08
4.8235e-07
-5.55064e-08
5.4788e-07
-1.41365e-07
-1.6668e-06
9.89374e-07
1.42429e-06
7.65334e-05
9.94124e-07
9.75365e-07
8.41365e-07
3.44678e-07
7.8334e-07
1.30599e-07
7.461e-07
8.38799e-08
7.17073e-07
6.54063e-08
6.94857e-07
5.00554e-08
6.7747e-07
3.91745e-08
6.63244e-07
3.20519e-08
6.51388e-07
2.67142e-08
6.41378e-07
2.25537e-08
6.32811e-07
1.93026e-08
6.25397e-07
1.67059e-08
6.18923e-07
1.45884e-08
6.13225e-07
1.28384e-08
6.08177e-07
1.1375e-08
6.03678e-07
1.01378e-08
5.99647e-07
9.08199e-09
5.9602e-07
8.17342e-09
5.92743e-07
7.38577e-09
5.8977e-07
6.69831e-09
5.87065e-07
6.09459e-09
5.84597e-07
5.5613e-09
5.8234e-07
5.08759e-09
5.8027e-07
4.66446e-09
5.78368e-07
4.28436e-09
5.76619e-07
3.94085e-09
5.75009e-07
3.62835e-09
5.73526e-07
3.34198e-09
5.72161e-07
3.07735e-09
5.70904e-07
2.83049e-09
5.69752e-07
2.59771e-09
5.68697e-07
2.37559e-09
5.67738e-07
2.16086e-09
5.66872e-07
1.95042e-09
5.66099e-07
1.74127e-09
5.6542e-07
1.5305e-09
5.64836e-07
1.31533e-09
5.6435e-07
1.09306e-09
5.63967e-07
8.61078e-10
5.63693e-07
6.16927e-10
5.63532e-07
3.58265e-10
5.63494e-07
8.29378e-11
5.63587e-07
-2.11077e-10
5.63818e-07
-5.2547e-10
5.64199e-07
-8.6177e-10
5.64739e-07
-1.22146e-09
5.65449e-07
-1.60585e-09
5.6634e-07
-2.01583e-09
5.67425e-07
-2.4523e-09
5.68715e-07
-2.91576e-09
5.70223e-07
-3.40707e-09
5.71961e-07
-3.92638e-09
5.73942e-07
-4.47504e-09
5.76178e-07
-5.05287e-09
5.78685e-07
-5.66278e-09
5.81475e-07
-6.30388e-09
5.84566e-07
-6.98301e-09
5.87973e-07
-7.6973e-09
5.91719e-07
-8.46173e-09
5.95823e-07
-9.27158e-09
6.00315e-07
-1.01484e-08
6.05241e-07
-1.113e-08
6.08751e-07
-7.93133e-09
6.12374e-07
-8.18543e-09
6.16113e-07
-8.44952e-09
6.19981e-07
-8.73996e-09
6.23977e-07
-9.03024e-09
6.28108e-07
-9.33663e-09
6.32382e-07
-9.65996e-09
6.3681e-07
-1.00086e-08
6.41407e-07
-1.039e-08
6.4619e-07
-1.08138e-08
6.51185e-07
-1.12935e-08
6.56423e-07
-1.18437e-08
6.61946e-07
-1.24912e-08
6.67807e-07
-1.3255e-08
6.74086e-07
-1.42043e-08
6.80865e-07
-1.53367e-08
6.88333e-07
-1.69014e-08
6.96587e-07
-1.86711e-08
7.06216e-07
-2.18046e-08
7.17145e-07
-2.46788e-08
7.32035e-07
-3.3741e-08
7.50605e-07
-4.16098e-08
7.93042e-07
-9.79435e-08
8.94176e-07
-2.42499e-07
-2.17246e-06
1.39983e-06
2.26944e-06
9.97787e-05
1.58807e-06
1.65673e-06
1.34458e-06
5.88174e-07
1.25178e-06
2.23396e-07
1.19228e-06
1.43378e-07
1.14593e-06
1.1176e-07
1.11045e-06
8.55362e-08
1.08268e-06
6.69447e-08
1.05996e-06
5.47703e-08
1.04103e-06
4.56485e-08
1.02504e-06
3.8539e-08
1.01136e-06
3.29832e-08
9.9952e-07
2.85459e-08
9.89181e-07
2.49274e-08
9.80082e-07
2.1937e-08
9.72021e-07
1.94363e-08
9.64837e-07
1.73223e-08
9.584e-07
1.55181e-08
9.52608e-07
1.39656e-08
9.47374e-07
1.26197e-08
9.42628e-07
1.1445e-08
9.38309e-07
1.04134e-08
9.34368e-07
9.50218e-09
9.30763e-07
8.69276e-09
9.27458e-07
7.96978e-09
9.24422e-07
7.32033e-09
9.21629e-07
6.7334e-09
9.19058e-07
6.1995e-09
9.1669e-07
5.71024e-09
9.14509e-07
5.25815e-09
9.12503e-07
4.83643e-09
9.10662e-07
4.4388e-09
9.08978e-07
4.05941e-09
9.07446e-07
3.69269e-09
9.06064e-07
3.33332e-09
9.04829e-07
2.9762e-09
9.03743e-07
2.61638e-09
9.02809e-07
2.24908e-09
9.02032e-07
1.8697e-09
9.0142e-07
1.47381e-09
9.00979e-07
1.05719e-09
9.00722e-07
6.15863e-10
9.00658e-07
1.46141e-10
9.00803e-07
-3.5542e-10
9.01169e-07
-8.91705e-10
9.01772e-07
-1.46532e-09
9.0263e-07
-2.07879e-09
9.03758e-07
-2.73436e-09
9.05176e-07
-3.43353e-09
9.06901e-07
-4.17784e-09
9.08954e-07
-4.96814e-09
9.11352e-07
-5.80589e-09
9.14117e-07
-6.69135e-09
9.17269e-07
-7.6268e-09
9.20828e-07
-8.61193e-09
9.24817e-07
-9.6517e-09
9.29258e-07
-1.07446e-08
9.34177e-07
-1.19022e-08
9.39599e-07
-1.31196e-08
9.4556e-07
-1.44224e-08
9.52091e-07
-1.58025e-08
9.59239e-07
-1.72964e-08
9.67077e-07
-1.89681e-08
9.72662e-07
-1.35164e-08
9.78426e-07
-1.39496e-08
9.84376e-07
-1.43991e-08
9.90529e-07
-1.48929e-08
9.96885e-07
-1.53868e-08
1.00346e-06
-1.59079e-08
1.01025e-06
-1.64577e-08
1.0173e-06
-1.70504e-08
1.0246e-06
-1.76986e-08
1.03221e-06
-1.84189e-08
1.04015e-06
-1.92339e-08
1.04848e-06
-2.01689e-08
1.05725e-06
-2.12687e-08
1.06656e-06
-2.25666e-08
1.07654e-06
-2.41784e-08
1.08731e-06
-2.61043e-08
1.09916e-06
-2.87575e-08
1.11227e-06
-3.17803e-08
1.12754e-06
-3.70759e-08
1.14494e-06
-4.20756e-08
1.16851e-06
-5.7313e-08
1.19828e-06
-7.13812e-08
1.26379e-06
-1.63448e-07
1.41319e-06
-3.91899e-07
-2.74516e-06
1.98589e-06
3.53816e-06
0.000127698
2.4835e-06
2.71139e-06
2.10371e-06
9.67962e-07
1.9584e-06
3.68712e-07
1.86534e-06
2.3644e-07
1.79288e-06
1.84217e-07
1.73741e-06
1.41006e-07
1.69399e-06
1.10362e-07
1.65848e-06
9.02865e-08
1.62888e-06
7.52481e-08
1.60389e-06
6.35283e-08
1.5825e-06
5.43695e-08
1.56399e-06
4.70544e-08
1.54783e-06
4.10894e-08
1.53361e-06
3.61597e-08
1.52101e-06
3.20375e-08
1.50978e-06
2.85527e-08
1.49972e-06
2.55786e-08
1.49066e-06
2.30194e-08
1.48248e-06
2.08008e-08
1.47506e-06
1.88645e-08
1.46831e-06
1.7164e-08
1.46215e-06
1.5662e-08
1.45652e-06
1.43278e-08
1.45135e-06
1.31361e-08
1.4466e-06
1.20657e-08
1.44224e-06
1.10983e-08
1.43822e-06
1.02183e-08
1.43452e-06
9.41201e-09
1.43111e-06
8.66697e-09
1.42797e-06
7.97202e-09
1.4251e-06
7.31685e-09
1.42246e-06
6.69178e-09
1.42007e-06
6.08766e-09
1.41791e-06
5.49573e-09
1.41597e-06
4.9076e-09
1.41428e-06
4.3151e-09
1.41281e-06
3.7104e-09
1.4116e-06
3.08589e-09
1.41064e-06
2.4343e-09
1.40995e-06
1.7487e-09
1.40954e-06
1.02252e-09
1.40944e-06
2.4971e-10
1.40966e-06
-5.75395e-10
1.41022e-06
-1.45755e-09
1.41116e-06
-2.40103e-09
1.41249e-06
-3.40999e-09
1.41424e-06
-4.4881e-09
1.41645e-06
-5.63786e-09
1.41913e-06
-6.86178e-09
1.42232e-06
-8.16125e-09
1.42606e-06
-9.53865e-09
1.43036e-06
-1.09944e-08
1.43526e-06
-1.25323e-08
1.4408e-06
-1.41517e-08
1.44701e-06
-1.58608e-08
1.45393e-06
-1.76572e-08
1.46158e-06
-1.95596e-08
1.47002e-06
-2.15604e-08
1.4793e-06
-2.37008e-08
1.48947e-06
-2.59684e-08
1.50059e-06
-2.84223e-08
1.51279e-06
-3.11668e-08
1.52149e-06
-2.22081e-08
1.53046e-06
-2.29202e-08
1.53971e-06
-2.36575e-08
1.54929e-06
-2.44668e-08
1.55918e-06
-2.52766e-08
1.5694e-06
-2.61305e-08
1.57997e-06
-2.70314e-08
1.59093e-06
-2.80025e-08
1.60229e-06
-2.9064e-08
1.61412e-06
-3.02435e-08
1.62646e-06
-3.15778e-08
1.6394e-06
-3.31084e-08
1.65304e-06
-3.49082e-08
1.66751e-06
-3.70328e-08
1.683e-06
-3.96688e-08
1.69972e-06
-4.28248e-08
1.71812e-06
-4.71566e-08
1.73847e-06
-5.21349e-08
1.76214e-06
-6.07445e-08
1.78921e-06
-6.91479e-08
1.82564e-06
-9.37447e-08
1.87223e-06
-1.1797e-07
1.97034e-06
-2.6156e-07
2.18304e-06
-6.04598e-07
-3.38527e-06
2.82316e-06
5.42825e-06
0.000161178
3.82431e-06
4.31533e-06
3.24133e-06
1.55094e-06
3.0172e-06
5.92843e-07
2.87387e-06
3.79773e-07
2.76235e-06
2.95734e-07
2.67697e-06
2.2639e-07
2.61013e-06
1.77198e-07
2.55546e-06
1.44954e-07
2.5099e-06
1.20808e-07
2.47144e-06
1.01991e-07
2.43852e-06
8.72861e-08
2.41004e-06
7.55412e-08
2.38516e-06
6.59643e-08
2.36327e-06
5.80495e-08
2.34388e-06
5.14314e-08
2.32659e-06
4.58365e-08
2.31111e-06
4.10618e-08
2.29718e-06
3.69531e-08
2.28459e-06
3.33913e-08
2.27317e-06
3.02827e-08
2.26278e-06
2.75529e-08
2.2533e-06
2.51416e-08
2.24463e-06
2.29998e-08
2.23668e-06
2.10868e-08
2.22938e-06
1.93684e-08
2.22266e-06
1.78155e-08
2.21647e-06
1.64031e-08
2.21078e-06
1.51089e-08
2.20553e-06
1.39131e-08
2.2007e-06
1.27979e-08
2.19628e-06
1.17465e-08
2.19222e-06
1.07437e-08
2.18854e-06
9.77453e-09
2.18521e-06
8.82513e-09
2.18223e-06
7.88196e-09
2.17962e-06
6.93199e-09
2.17736e-06
5.96262e-09
2.17549e-06
4.9617e-09
2.174e-06
3.91757e-09
2.17293e-06
2.81911e-09
2.1723e-06
1.65582e-09
2.17213e-06
4.18014e-10
2.17246e-06
-9.03395e-10
2.17332e-06
-2.31601e-09
2.17474e-06
-3.82668e-09
2.17678e-06
-5.44206e-09
2.17946e-06
-7.168e-09
2.18283e-06
-9.00851e-09
2.18693e-06
-1.09676e-08
2.19182e-06
-1.30474e-08
2.19753e-06
-1.52519e-08
2.20412e-06
-1.75816e-08
2.21163e-06
-2.00425e-08
2.22011e-06
-2.26338e-08
2.22962e-06
-2.53682e-08
2.2402e-06
-2.8242e-08
2.25193e-06
-3.12851e-08
2.26485e-06
-3.44854e-08
2.27906e-06
-3.79081e-08
2.29463e-06
-4.15341e-08
2.31166e-06
-4.54569e-08
2.33034e-06
-4.98412e-08
2.34364e-06
-3.55131e-08
2.35737e-06
-3.66521e-08
2.37154e-06
-3.78289e-08
2.3862e-06
-3.91189e-08
2.40133e-06
-4.04105e-08
2.41697e-06
-4.17717e-08
2.43315e-06
-4.32076e-08
2.4499e-06
-4.47546e-08
2.46728e-06
-4.64454e-08
2.48536e-06
-4.83236e-08
2.50423e-06
-5.04477e-08
2.52401e-06
-5.2884e-08
2.54485e-06
-5.57476e-08
2.56694e-06
-5.91292e-08
2.59059e-06
-6.332e-08
2.61612e-06
-6.83488e-08
2.64418e-06
-7.52208e-08
2.67525e-06
-8.31983e-08
2.71129e-06
-9.67849e-08
2.75269e-06
-1.1055e-07
2.80793e-06
-1.48988e-07
2.87939e-06
-1.89424e-07
3.0225e-06
-4.04671e-07
3.31518e-06
-8.97277e-07
-4.08965e-06
4.01955e-06
8.22562e-06
0.000201248
5.82093e-06
6.72003e-06
4.93698e-06
2.43489e-06
4.59518e-06
9.34644e-07
4.37696e-06
5.97989e-07
4.20734e-06
4.65358e-07
4.07744e-06
3.56288e-07
3.97575e-06
2.78887e-07
3.89258e-06
2.2812e-07
3.82328e-06
1.90115e-07
3.76477e-06
1.60502e-07
3.71469e-06
1.37358e-07
3.67136e-06
1.18874e-07
3.63352e-06
1.03802e-07
3.60023e-06
9.1346e-08
3.57073e-06
8.09308e-08
3.54444e-06
7.2126e-08
3.52089e-06
6.4612e-08
3.49969e-06
5.81462e-08
3.48054e-06
5.25412e-08
3.46318e-06
4.76495e-08
3.44738e-06
4.33537e-08
3.43296e-06
3.95593e-08
3.41977e-06
3.61891e-08
3.40768e-06
3.31789e-08
3.39657e-06
3.04751e-08
3.38636e-06
2.80319e-08
3.37695e-06
2.58096e-08
3.36828e-06
2.37735e-08
3.3603e-06
2.18925e-08
3.35296e-06
2.01383e-08
3.34623e-06
1.84849e-08
3.34006e-06
1.69078e-08
3.33445e-06
1.53842e-08
3.32939e-06
1.38918e-08
3.32486e-06
1.24096e-08
3.32087e-06
1.0917e-08
3.31744e-06
9.3943e-09
3.31458e-06
7.82239e-09
3.31232e-06
6.18299e-09
3.31068e-06
4.45864e-09
3.3097e-06
2.63286e-09
3.30943e-06
6.9045e-10
3.30991e-06
-1.38283e-09
3.31119e-06
-3.59891e-09
3.31333e-06
-5.96855e-09
3.31639e-06
-8.50215e-09
3.32043e-06
-1.12089e-08
3.32552e-06
-1.4095e-08
3.33171e-06
-1.71668e-08
3.33909e-06
-2.04277e-08
3.34773e-06
-2.38837e-08
3.35768e-06
-2.75357e-08
3.36903e-06
-3.1393e-08
3.38185e-06
-3.54543e-08
3.39622e-06
-3.97395e-08
3.41222e-06
-4.42427e-08
3.42995e-06
-4.90102e-08
3.44949e-06
-5.40238e-08
3.47096e-06
-5.9384e-08
3.49449e-06
-6.50628e-08
3.52024e-06
-7.12036e-08
3.54846e-06
-7.80618e-08
3.56856e-06
-5.56181e-08
3.58932e-06
-5.74022e-08
3.61073e-06
-5.9241e-08
3.63286e-06
-6.12531e-08
3.65572e-06
-6.32697e-08
3.67934e-06
-6.53932e-08
3.70377e-06
-6.76326e-08
3.72906e-06
-7.00444e-08
3.75529e-06
-7.26792e-08
3.78257e-06
-7.56052e-08
3.81104e-06
-7.89131e-08
3.84086e-06
-8.27065e-08
3.87228e-06
-8.71631e-08
3.90557e-06
-9.24277e-08
3.9412e-06
-9.89425e-08
3.97963e-06
-1.06781e-07
4.02184e-06
-1.17435e-07
4.06859e-06
-1.29946e-07
4.12268e-06
-1.50875e-07
4.18509e-06
-1.72958e-07
4.26749e-06
-2.31392e-07
4.37507e-06
-2.96999e-07
4.5786e-06
-6.08201e-07
4.96805e-06
-1.28673e-06
-4.85053e-06
5.72893e-06
1.23415e-05
0.000249086
8.78035e-06
1.02812e-05
7.45315e-06
3.76209e-06
6.9364e-06
1.45139e-06
6.60716e-06
9.27232e-07
6.35151e-06
7.21006e-07
6.15569e-06
5.52109e-07
6.00238e-06
4.32197e-07
5.87701e-06
3.53487e-07
5.77254e-06
2.94586e-07
5.68434e-06
2.48698e-07
5.60887e-06
2.12833e-07
5.54356e-06
1.84188e-07
5.48653e-06
1.60832e-07
5.43634e-06
1.4153e-07
5.39188e-06
1.25391e-07
5.35226e-06
1.11748e-07
5.31677e-06
1.00105e-07
5.28483e-06
9.0086e-08
5.25597e-06
8.14012e-08
5.2298e-06
7.38217e-08
5.20598e-06
6.71658e-08
5.18426e-06
6.12869e-08
5.16438e-06
5.60652e-08
5.14616e-06
5.14015e-08
5.12942e-06
4.72127e-08
5.11402e-06
4.34277e-08
5.09985e-06
3.99853e-08
5.08679e-06
3.68315e-08
5.07477e-06
3.39181e-08
5.0637e-06
3.12016e-08
5.05355e-06
2.86415e-08
5.04426e-06
2.62001e-08
5.0358e-06
2.38419e-08
5.02816e-06
2.15327e-08
5.02133e-06
1.92397e-08
5.01531e-06
1.69314e-08
5.01013e-06
1.45772e-08
5.0058e-06
1.21476e-08
5.00237e-06
9.61431e-09
4.99988e-06
6.95044e-09
4.99838e-06
4.13053e-09
4.99794e-06
1.13112e-09
4.99863e-06
-2.06979e-09
5.00052e-06
-5.49062e-09
5.0037e-06
-9.14795e-09
5.00825e-06
-1.30578e-08
5.01428e-06
-1.72343e-08
5.02187e-06
-2.16872e-08
5.03113e-06
-2.64259e-08
5.04216e-06
-3.1456e-08
5.05506e-06
-3.67862e-08
5.06994e-06
-4.24185e-08
5.08691e-06
-4.83665e-08
5.10609e-06
-5.46286e-08
5.12758e-06
-6.12346e-08
5.15152e-06
-6.81762e-08
5.17803e-06
-7.55234e-08
5.20726e-06
-8.32494e-08
5.23938e-06
-9.15062e-08
5.27457e-06
-1.00254e-07
5.31308e-06
-1.09708e-07
5.35527e-06
-1.20257e-07
5.38533e-06
-8.56763e-08
5.41635e-06
-8.84252e-08
5.44836e-06
-9.12496e-08
5.48144e-06
-9.43339e-08
5.5156e-06
-9.74283e-08
5.55089e-06
-1.00683e-07
5.58737e-06
-1.04115e-07
5.62514e-06
-1.07809e-07
5.6643e-06
-1.11843e-07
5.70502e-06
-1.16321e-07
5.74748e-06
-1.2138e-07
5.79196e-06
-1.27181e-07
5.83879e-06
-1.33991e-07
5.8884e-06
-1.42039e-07
5.94144e-06
-1.51981e-07
5.99863e-06
-1.63976e-07
6.06138e-06
-1.80182e-07
6.13089e-06
-1.99452e-07
6.21104e-06
-2.31028e-07
6.3039e-06
-2.65816e-07
6.42494e-06
-3.52437e-07
6.58388e-06
-4.55937e-07
6.86593e-06
-8.90249e-07
7.36658e-06
-1.78738e-06
-5.6545e-06
8.17055e-06
1.83644e-05
0.000306019
1.31493e-05
1.54964e-05
1.11728e-05
5.73858e-06
1.03968e-05
2.22733e-06
9.90363e-06
1.42043e-06
9.52118e-06
1.10346e-06
9.22815e-06
8.45139e-07
8.99871e-06
6.61642e-07
8.81111e-06
5.41081e-07
8.6548e-06
4.50903e-07
8.52283e-06
3.80663e-07
8.40991e-06
3.25758e-07
8.31219e-06
2.81908e-07
8.22686e-06
2.46156e-07
8.15178e-06
2.1661e-07
8.08527e-06
1.91906e-07
8.02599e-06
1.71022e-07
7.9729e-06
1.53201e-07
7.92512e-06
1.37866e-07
7.88195e-06
1.24573e-07
7.84279e-06
1.12973e-07
7.80718e-06
1.02786e-07
7.77467e-06
9.37879e-08
7.74494e-06
8.57965e-08
7.71769e-06
7.86593e-08
7.69265e-06
7.22491e-08
7.66962e-06
6.64572e-08
7.64842e-06
6.11899e-08
7.62888e-06
5.63647e-08
7.61089e-06
5.19079e-08
7.59434e-06
4.77528e-08
7.57915e-06
4.38378e-08
7.56524e-06
4.01052e-08
7.55258e-06
3.65006e-08
7.54115e-06
3.2972e-08
7.53092e-06
2.94693e-08
7.5219e-06
2.59444e-08
7.51413e-06
2.23507e-08
7.50763e-06
1.86431e-08
7.50247e-06
1.47785e-08
7.4987e-06
1.0716e-08
7.49642e-06
6.41677e-09
7.4957e-06
1.84499e-09
7.49666e-06
-3.03282e-09
7.49942e-06
-8.24472e-09
7.50408e-06
-1.38159e-08
7.5108e-06
-1.97709e-08
7.51969e-06
-2.6131e-08
7.53092e-06
-3.29109e-08
7.54461e-06
-4.01253e-08
7.56094e-06
-4.77822e-08
7.58005e-06
-5.5895e-08
7.60209e-06
-6.44665e-08
7.62724e-06
-7.35171e-08
7.65566e-06
-8.30444e-08
7.68752e-06
-9.30931e-08
7.72299e-06
-1.03651e-07
7.76229e-06
-1.14822e-07
7.80561e-06
-1.26569e-07
7.85323e-06
-1.39117e-07
7.90538e-06
-1.5241e-07
7.96244e-06
-1.66768e-07
8.02496e-06
-1.82771e-07
8.06948e-06
-1.30203e-07
8.11544e-06
-1.34381e-07
8.16285e-06
-1.38658e-07
8.21183e-06
-1.43317e-07
8.2624e-06
-1.47997e-07
8.31463e-06
-1.52914e-07
8.36861e-06
-1.58096e-07
8.42447e-06
-1.63669e-07
8.48238e-06
-1.69752e-07
8.54255e-06
-1.765e-07
8.6053e-06
-1.8412e-07
8.67097e-06
-1.92854e-07
8.74008e-06
-2.03099e-07
8.81325e-06
-2.15209e-07
8.8914e-06
-2.30136e-07
8.97563e-06
-2.48202e-07
9.06788e-06
-2.72434e-07
9.17007e-06
-3.01642e-07
9.28744e-06
-3.48389e-07
9.42384e-06
-4.02217e-07
9.5989e-06
-5.27502e-07
9.82897e-06
-6.86001e-07
1.02091e-05
-1.2704e-06
1.08298e-05
-2.40802e-06
-6.4816e-06
1.16569e-05
2.71308e-05
0.000373501
1.95756e-05
2.30515e-05
1.66532e-05
8.66102e-06
1.54944e-05
3.38611e-06
1.476e-05
2.15489e-06
1.41913e-05
1.67208e-06
1.37555e-05
1.28095e-06
1.34142e-05
1.00294e-06
1.31352e-05
8.20071e-07
1.29028e-05
6.83366e-07
1.27065e-05
5.76906e-07
1.25386e-05
4.93683e-07
1.23933e-05
4.27216e-07
1.22664e-05