/*--------------------------------*- C++ -*----------------------------------*\
| =========                 |                                                 |
| \\      /  F ield         | OpenFOAM: The Open Source CFD Toolbox           |
|  \\    /   O peration     | Version:  2506                                  |
|   \\  /    A nd           | Website:  www.openfoam.com                      |
|    \\/     M anipulation  |                                                 |
\*---------------------------------------------------------------------------*/
FoamFile
{
    version     2.0;
    format      ascii;
    arch        "LSB;label=32;scalar=64";
    class       volVectorField;
    location    "2000";
    object      U;
}
// * * * * * * * * * * * * * * * * * * * * * * * * * * * * * * * * * * * * * //

dimensions      [0 1 -1 0 0 0 0];

internalField   nonuniform List<vector> 
20540
(
(0.701552 -1.39805e-05 0)
(1.35745 0.000124906 0)
(0.701316 -4.48675e-05 0)
(1.35742 0.000398125 0)
(0.701026 -8.22177e-05 0)
(1.35734 0.00072387 0)
(0.700682 -0.000127366 0)
(1.3572 0.00111089 0)
(0.700284 -0.00018192 0)
(1.35695 0.00156909 0)
(0.699843 -0.000247804 0)
(1.35653 0.00210908 0)
(0.699384 -0.000327305 0)
(1.35585 0.00274187 0)
(0.698951 -0.000423126 0)
(1.35479 0.00347826 0)
(0.698618 -0.000538417 0)
(1.35315 0.00432786 0)
(0.698507 -0.000676792 0)
(1.35068 0.00529773 0)
(0.698806 -0.000842275 0)
(1.34699 0.00639025 0)
(0.6998 -0.00103915 0)
(1.34154 0.00760039 0)
(0.701907 -0.00127162 0)
(1.33362 0.00891219 0)
(0.705722 -0.00154316 0)
(1.32227 0.0102945 0)
(0.71206 -0.00185533 0)
(1.3063 0.0116962 0)
(0.721975 -0.00220602 0)
(1.28431 0.0130426 0)
(0.736728 -0.00258662 0)
(1.25484 0.0142328 0)
(0.757626 -0.00297825 0)
(1.21672 0.0151436 0)
(0.78568 -0.00334753 0)
(1.1697 0.0156422 0)
(0.821012 -0.00364356 0)
(1.11544 0.0156148 0)
(0.862128 -0.00380116 0)
(1.05859 0.0150152 0)
(0.905387 -0.00375832 0)
(1.0074 0.0139246 0)
(0.945263 -0.00349298 0)
(0.972034 0.012588 0)
(0.975881 -0.00306381 0)
(0.959476 0.0113498 0)
(0.993682 -0.00260739 0)
(0.966973 0.0104417 0)
(0.999921 -0.00224859 0)
(0.981571 0.00976121 0)
(1.00018 -0.00198719 0)
(0.9908 0.00896352 0)
(0.999674 -0.00172306 0)
(0.993152 0.0078257 0)
(0.999748 -0.00138335 0)
(0.993479 0.00634268 0)
(0.999897 -0.000954321 0)
(0.99403 0.00456194 0)
(0.999952 -0.000514826 0)
(0.994513 0.00268375 0)
(0.99997 -0.000117742 0)
(0.994745 0.000869105 0)
(0.999967 0.000268719 0)
(0.99474 -0.000925285 0)
(0.999945 0.000667976 0)
(0.994498 -0.00273864 0)
(0.999887 0.00109961 0)
(0.994012 -0.00458791 0)
(0.999743 0.00151257 0)
(0.993464 -0.00632114 0)
(0.999652 0.00184302 0)
(0.993176 -0.00777278 0)
(1.00013 0.00210141 0)
(0.991324 -0.00890248 0)
(1.00028 0.0023474 0)
(0.98338 -0.00970397 0)
(0.995734 0.00267453 0)
(0.969494 -0.0103562 0)
(0.981103 0.00310167 0)
(0.959954 -0.0111823 0)
(0.954344 0.00352914 0)
(0.967533 -0.0123334 0)
(0.917896 0.00382551 0)
(0.997052 -0.0136493 0)
(0.876855 0.00391768 0)
(1.04378 -0.0148169 0)
(0.836553 0.00380906 0)
(1.09858 -0.0155747 0)
(0.800912 0.00354959 0)
(1.15304 -0.015802 0)
(0.77191 0.00320065 0)
(1.20176 -0.0155064 0)
(0.749868 0.00281461 0)
(1.24232 -0.0147744 0)
(0.734074 0.00242845 0)
(1.27438 -0.0137238 0)
(0.723362 0.00206484 0)
(1.29874 -0.0124733 0)
(0.716508 0.00173558 0)
(1.3167 -0.0111257 0)
(0.712431 0.00144514 0)
(1.32961 -0.00976138 0)
(0.710262 0.00119353 0)
(1.33869 -0.00843863 0)
(0.70935 0.000978259 0)
(1.34495 -0.0071959 0)
(0.709227 0.000795682 0)
(1.34918 -0.00605585 0)
(0.709568 0.00064177 0)
(1.35199 -0.00502913 0)
(0.710155 0.000512567 0)
(1.35381 -0.00411786 0)
(0.710846 0.000404423 0)
(1.35495 -0.00331845 0)
(0.711552 0.000314087 0)
(1.35565 -0.00262373 0)
(0.712222 0.000238732 0)
(1.35605 -0.00202461 0)
(0.712826 0.000175931 0)
(1.35626 -0.00151115 0)
(0.713351 0.000123628 0)
(1.35635 -0.00107337 0)
(0.713795 8.00855e-05 0)
(1.35637 -0.000701667 0)
(0.714159 4.38456e-05 0)
(1.35634 -0.000387084 0)
(0.714453 1.36932e-05 0)
(1.3563 -0.000121702 0)
(0.00635131 0.000159231 0)
(0.00307036 1.48373e-07 0)
(0.00236314 3.88506e-08 0)
(0.00203819 1.8956e-08 0)
(0.00187593 1.10438e-08 0)
(0.00176545 8.48204e-09 0)
(0.00167504 7.099e-09 0)
(0.00160339 5.83496e-09 0)
(0.0015466 4.89426e-09 0)
(0.00149964 4.25059e-09 0)
(0.00145982 3.75853e-09 0)
(0.0014257 3.35832e-09 0)
(0.00139617 3.034e-09 0)
(0.00137031 2.76903e-09 0)
(0.00134746 2.54799e-09 0)
(0.00132712 2.36083e-09 0)
(0.0013089 2.20087e-09 0)
(0.00129249 2.0629e-09 0)
(0.00127763 1.94284e-09 0)
(0.00126411 1.83753e-09 0)
(0.00125177 1.74453e-09 0)
(0.00124046 1.66186e-09 0)
(0.00123006 1.5879e-09 0)
(0.00122047 1.52132e-09 0)
(0.0012116 1.46102e-09 0)
(0.00120339 1.40601e-09 0)
(0.00119577 1.35547e-09 0)
(0.00118869 1.30861e-09 0)
(0.00118209 1.26474e-09 0)
(0.00117595 1.22317e-09 0)
(0.00117022 1.18323e-09 0)
(0.00116488 1.14425e-09 0)
(0.0011599 1.10553e-09 0)
(0.00115528 1.06634e-09 0)
(0.00115098 1.0259e-09 0)
(0.001147 9.83389e-10 0)
(0.00114333 9.37904e-10 0)
(0.00113997 8.8849e-10 0)
(0.00113692 8.3412e-10 0)
(0.00113416 7.73693e-10 0)
(0.00113172 7.06039e-10 0)
(0.00112959 6.29915e-10 0)
(0.00112778 5.44017e-10 0)
(0.00112631 4.46965e-10 0)
(0.00112517 3.37336e-10 0)
(0.00112439 2.13624e-10 0)
(0.00112399 7.43063e-11 0)
(0.00112396 -8.22592e-11 0)
(0.00112434 -2.57678e-10 0)
(0.00112514 -4.53759e-10 0)
(0.00112637 -6.72152e-10 0)
(0.00112805 -9.14928e-10 0)
(0.0011302 -1.18378e-09 0)
(0.00113285 -1.48136e-09 0)
(0.001136 -1.80945e-09 0)
(0.00113967 -2.17166e-09 0)
(0.0011439 -2.56961e-09 0)
(0.00114868 -3.00869e-09 0)
(0.00115407 -3.49039e-09 0)
(0.00116006 -4.02249e-09 0)
(0.00116671 -4.60861e-09 0)
(0.001174 -5.25184e-09 0)
(0.00118204 -5.99708e-09 0)
(0.0011894 -6.6799e-09 0)
(0.00119552 -7.20091e-09 0)
(0.00120175 -7.78155e-09 0)
(0.00120819 -8.43051e-09 0)
(0.00121481 -9.10458e-09 0)
(0.00122161 -9.82266e-09 0)
(0.00122857 -1.0588e-08 0)
(0.00123572 -1.14105e-08 0)
(0.00124302 -1.22994e-08 0)
(0.00125054 -1.32679e-08 0)
(0.00125822 -1.4334e-08 0)
(0.00126616 -1.55189e-08 0)
(0.00127427 -1.68627e-08 0)
(0.00128278 -1.83892e-08 0)
(0.00129144 -2.02256e-08 0)
(0.00130083 -2.23217e-08 0)
(0.00131021 -2.52111e-08 0)
(0.00132128 -2.82701e-08 0)
(0.00133143 -3.40849e-08 0)
(0.00134668 -3.86843e-08 0)
(0.00135667 -5.56278e-08 0)
(0.00138595 -6.34226e-08 0)
(0.00138968 -1.68097e-07 0)
(0.00149873 -3.8643e-07 0)
(0.00154513 -0.000176863 0)
(0.0202331 0.000509839 0)
(0.00984344 2.30055e-06 0)
(0.00758004 6.20387e-07 0)
(0.00653823 3.0414e-07 0)
(0.00601738 1.77263e-07 0)
(0.00566294 1.35783e-07 0)
(0.00537303 1.13621e-07 0)
(0.00514329 9.34463e-08 0)
(0.00496115 7.83806e-08 0)
(0.00481053 6.80604e-08 0)
(0.00468283 6.01804e-08 0)
(0.00457343 5.37735e-08 0)
(0.00447871 4.858e-08 0)
(0.00439577 4.43368e-08 0)
(0.00432248 4.07972e-08 0)
(0.00425727 3.78004e-08 0)
(0.00419884 3.5239e-08 0)
(0.00414621 3.30298e-08 0)
(0.00409855 3.11073e-08 0)
(0.0040552 2.94212e-08 0)
(0.00401562 2.79321e-08 0)
(0.00397934 2.66083e-08 0)
(0.00394599 2.54241e-08 0)
(0.00391524 2.43583e-08 0)
(0.00388681 2.33928e-08 0)
(0.00386048 2.25123e-08 0)
(0.00383604 2.17032e-08 0)
(0.00381331 2.09534e-08 0)
(0.00379216 2.02514e-08 0)
(0.00377245 1.95865e-08 0)
(0.00375408 1.89479e-08 0)
(0.00373696 1.83249e-08 0)
(0.00372101 1.77065e-08 0)
(0.00370616 1.70809e-08 0)
(0.00369238 1.64359e-08 0)
(0.00367962 1.57582e-08 0)
(0.00366785 1.50337e-08 0)
(0.00365707 1.42471e-08 0)
(0.00364726 1.33821e-08 0)
(0.00363843 1.24213e-08 0)
(0.00363058 1.13462e-08 0)
(0.00362374 1.01368e-08 0)
(0.00361793 8.77272e-09 0)
(0.00361318 7.2319e-09 0)
(0.00360953 5.49184e-09 0)
(0.00360702 3.52861e-09 0)
(0.00360569 1.31818e-09 0)
(0.00360559 -1.16565e-09 0)
(0.00360677 -3.94798e-09 0)
(0.00360929 -7.058e-09 0)
(0.00361321 -1.05209e-08 0)
(0.00361857 -1.4371e-08 0)
(0.00362543 -1.86327e-08 0)
(0.00363386 -2.33514e-08 0)
(0.00364391 -2.85495e-08 0)
(0.00365563 -3.42931e-08 0)
(0.00366913 -4.05936e-08 0)
(0.0036844 -4.75581e-08 0)
(0.00370161 -5.51751e-08 0)
(0.00372072 -6.36211e-08 0)
(0.00374197 -7.28713e-08 0)
(0.00376527 -8.30943e-08 0)
(0.00379092 -9.48342e-08 0)
(0.00381445 -1.05586e-07 0)
(0.00383399 -1.1397e-07 0)
(0.00385388 -1.23069e-07 0)
(0.00387446 -1.33335e-07 0)
(0.00389558 -1.43984e-07 0)
(0.00391729 -1.55308e-07 0)
(0.00393953 -1.67414e-07 0)
(0.00396234 -1.80347e-07 0)
(0.00398567 -1.94429e-07 0)
(0.00400966 -2.09584e-07 0)
(0.00403417 -2.26546e-07 0)
(0.00405952 -2.44909e-07 0)
(0.00408542 -2.6651e-07 0)
(0.00411257 -2.89701e-07 0)
(0.00414022 -3.19902e-07 0)
(0.00417017 -3.50308e-07 0)
(0.00420009 -4.00132e-07 0)
(0.00423536 -4.39193e-07 0)
(0.00426779 -5.47745e-07 0)
(0.00431622 -5.82737e-07 0)
(0.00434836 -9.26943e-07 0)
(0.00444081 -8.7213e-07 0)
(0.00445452 -2.87581e-06 0)
(0.00479047 -4.61497e-06 0)
(0.00492428 -0.000551585 0)
(0.0368057 0.000931799 0)
(0.0180204 8.01765e-06 0)
(0.0138837 2.18151e-06 0)
(0.0119765 1.07106e-06 0)
(0.0110218 6.24525e-07 0)
(0.0103724 4.78085e-07 0)
(0.00984165 3.99978e-07 0)
(0.00942095 3.29e-07 0)
(0.00908739 2.75967e-07 0)
(0.00881157 2.39621e-07 0)
(0.0085777 2.11876e-07 0)
(0.00837737 1.8932e-07 0)
(0.00820391 1.71036e-07 0)
(0.00805202 1.56096e-07 0)
(0.00791783 1.43635e-07 0)
(0.00779839 1.33084e-07 0)
(0.00769141 1.24066e-07 0)
(0.00759502 1.16288e-07 0)
(0.00750775 1.09519e-07 0)
(0.00742837 1.03583e-07 0)
(0.00735588 9.83404e-08 0)
(0.00728944 9.36799e-08 0)
(0.00722836 8.95109e-08 0)
(0.00717205 8.57585e-08 0)
(0.00712 8.23595e-08 0)
(0.00707177 7.92597e-08 0)
(0.00702701 7.64116e-08 0)
(0.0069854 7.3772e-08 0)
(0.00694666 7.13012e-08 0)
(0.00691057 6.89609e-08 0)
(0.00687693 6.67137e-08 0)
(0.00684557 6.45217e-08 0)
(0.00681635 6.2346e-08 0)
(0.00678917 6.01457e-08 0)
(0.00676392 5.78775e-08 0)
(0.00674055 5.54949e-08 0)
(0.006719 5.29482e-08 0)
(0.00669924 5.0184e-08 0)
(0.00668127 4.71449e-08 0)
(0.00666508 4.37697e-08 0)
(0.0066507 3.99932e-08 0)
(0.00663815 3.57461e-08 0)
(0.00662749 3.09558e-08 0)
(0.00661877 2.55455e-08 0)
(0.00661205 1.94361e-08 0)
(0.00660741 1.25436e-08 0)
(0.00660494 4.78371e-09 0)
(0.00660471 -3.93557e-09 0)
(0.00660683 -1.37022e-08 0)
(0.00661139 -2.46188e-08 0)
(0.0066185 -3.67735e-08 0)
(0.00662824 -5.02865e-08 0)
(0.00664074 -6.52435e-08 0)
(0.00665608 -8.18044e-08 0)
(0.00667439 -1.00046e-07 0)
(0.00669576 -1.20202e-07 0)
(0.00672035 -1.42309e-07 0)
(0.0067482 -1.66749e-07 0)
(0.00677957 -1.9347e-07 0)
(0.00681442 -2.23107e-07 0)
(0.00685317 -2.55548e-07 0)
(0.00689564 -2.91422e-07 0)
(0.00694243 -3.32569e-07 0)
(0.00698533 -3.7026e-07 0)
(0.00702096 -3.9973e-07 0)
(0.00705723 -4.31606e-07 0)
(0.00709477 -4.67588e-07 0)
(0.00713329 -5.04919e-07 0)
(0.00717287 -5.44603e-07 0)
(0.00721341 -5.87035e-07 0)
(0.007255 -6.32337e-07 0)
(0.00729754 -6.81689e-07 0)
(0.00734126 -7.34741e-07 0)
(0.00738595 -7.94184e-07 0)
(0.00743215 -8.58399e-07 0)
(0.00747935 -9.34122e-07 0)
(0.00752883 -1.01507e-06 0)
(0.00757921 -1.12104e-06 0)
(0.00763374 -1.22678e-06 0)
(0.00768826 -1.40194e-06 0)
(0.00775239 -1.53655e-06 0)
(0.00781155 -1.91917e-06 0)
(0.00789938 -2.03444e-06 0)
(0.0079584 -3.24967e-06 0)
(0.00812507 -3.03329e-06 0)
(0.00815313 -9.96223e-06 0)
(0.00874721 -1.52411e-05 0)
(0.00897136 -0.000981111 0)
(0.0565368 0.00143896 0)
(0.0278886 1.95392e-05 0)
(0.0214986 5.35952e-06 0)
(0.0185471 2.63484e-06 0)
(0.0170675 1.53705e-06 0)
(0.0160618 1.17602e-06 0)
(0.0152402 9.83691e-07 0)
(0.014589 8.09218e-07 0)
(0.0140725 6.78802e-07 0)
(0.0136455 5.89383e-07 0)
(0.0132835 5.21132e-07 0)
(0.0129733 4.65657e-07 0)
(0.0127048 4.20684e-07 0)
(0.0124696 3.83938e-07 0)
(0.0122619 3.53286e-07 0)
(0.012077 3.27335e-07 0)
(0.0119114 3.05155e-07 0)
(0.0117622 2.86024e-07 0)
(0.011627 2.69376e-07 0)
(0.0115041 2.54775e-07 0)
(0.0113919 2.4188e-07 0)
(0.0112891 2.30417e-07 0)
(0.0111945 2.20163e-07 0)
(0.0111073 2.10934e-07 0)
(0.0110267 2.02574e-07 0)
(0.0109521 1.94951e-07 0)
(0.0108828 1.87946e-07 0)
(0.0108184 1.81455e-07 0)
(0.0107584 1.75379e-07 0)
(0.0107025 1.69624e-07 0)
(0.0106504 1.64099e-07 0)
(0.0106019 1.58711e-07 0)
(0.0105567 1.53363e-07 0)
(0.0105146 1.47956e-07 0)
(0.0104755 1.42383e-07 0)
(0.0104393 1.3653e-07 0)
(0.0104059 1.30276e-07 0)
(0.0103753 1.23488e-07 0)
(0.0103475 1.16027e-07 0)
(0.0103224 1.07742e-07 0)
(0.0103001 9.84735e-08 0)
(0.0102806 8.80509e-08 0)
(0.0102641 7.62966e-08 0)
(0.0102505 6.30221e-08 0)
(0.0102401 4.80334e-08 0)
(0.0102328 3.11243e-08 0)
(0.0102289 1.20883e-08 0)
(0.0102285 -9.30018e-09 0)
(0.0102317 -3.32568e-08 0)
(0.0102386 -6.00331e-08 0)
(0.0102495 -8.98452e-08 0)
(0.0102645 -1.22988e-07 0)
(0.0102837 -1.5967e-07 0)
(0.0103073 -2.00285e-07 0)
(0.0103355 -2.4502e-07 0)
(0.0103683 -2.94449e-07 0)
(0.0104062 -3.48656e-07 0)
(0.0104491 -4.08584e-07 0)
(0.0104974 -4.74097e-07 0)
(0.0105511 -5.46763e-07 0)
(0.0106108 -6.26283e-07 0)
(0.0106762 -7.14235e-07 0)
(0.0107483 -8.15039e-07 0)
(0.0108143 -9.07397e-07 0)
(0.0108692 -9.7973e-07 0)
(0.0109251 -1.0578e-06 0)
(0.0109829 -1.14593e-06 0)
(0.0110423 -1.23739e-06 0)
(0.0111032 -1.33459e-06 0)
(0.0111657 -1.43851e-06 0)
(0.0112297 -1.54944e-06 0)
(0.0112952 -1.67029e-06 0)
(0.0113626 -1.80013e-06 0)
(0.0114314 -1.94565e-06 0)
(0.0115025 -2.10272e-06 0)
(0.0115751 -2.28805e-06 0)
(0.0116513 -2.48586e-06 0)
(0.0117288 -2.74516e-06 0)
(0.0118127 -3.00326e-06 0)
(0.0118966 -3.43169e-06 0)
(0.0119951 -3.75969e-06 0)
(0.0120862 -4.69458e-06 0)
(0.0122206 -4.97505e-06 0)
(0.0123122 -7.93845e-06 0)
(0.0125655 -7.42519e-06 0)
(0.0126139 -2.40355e-05 0)
(0.0134975 -3.56689e-05 0)
(0.01381 -0.00146606 0)
(0.0799511 0.00204772 0)
(0.0397923 3.99233e-05 0)
(0.0306948 1.105e-05 0)
(0.0264838 5.44017e-06 0)
(0.0243691 3.17533e-06 0)
(0.0229327 2.42812e-06 0)
(0.0217603 2.03053e-06 0)
(0.0208309 1.67057e-06 0)
(0.0200937 1.4014e-06 0)
(0.0194841 1.21675e-06 0)
(0.0189674 1.07584e-06 0)
(0.0185247 9.61316e-07 0)
(0.0181414 8.68475e-07 0)
(0.0178058 7.92613e-07 0)
(0.0175092 7.29334e-07 0)
(0.0172453 6.75761e-07 0)
(0.0170089 6.29971e-07 0)
(0.0167959 5.90476e-07 0)
(0.0166031 5.56108e-07 0)
(0.0164277 5.25966e-07 0)
(0.0162675 4.99345e-07 0)
(0.0161207 4.75681e-07 0)
(0.0159857 4.54513e-07 0)
(0.0158613 4.35461e-07 0)
(0.0157462 4.18203e-07 0)
(0.0156397 4.02466e-07 0)
(0.0155408 3.88007e-07 0)
(0.0154488 3.74608e-07 0)
(0.0153632 3.62068e-07 0)
(0.0152834 3.50192e-07 0)
(0.0152091 3.38791e-07 0)
(0.0151398 3.27674e-07 0)
(0.0150752 3.16643e-07 0)
(0.0150151 3.05492e-07 0)
(0.0149593 2.94001e-07 0)
(0.0149076 2.81936e-07 0)
(0.01486 2.69046e-07 0)
(0.0148162 2.5506e-07 0)
(0.0147765 2.3969e-07 0)
(0.0147406 2.22625e-07 0)
(0.0147088 2.03537e-07 0)
(0.0146809 1.82076e-07 0)
(0.0146572 1.57875e-07 0)
(0.0146378 1.30546e-07 0)
(0.0146228 9.96917e-08 0)
(0.0146124 6.48862e-08 0)
(0.0146067 2.5705e-08 0)
(0.0146059 -1.83159e-08 0)
(0.0146103 -6.76203e-08 0)
(0.0146201 -1.22725e-07 0)
(0.0146354 -1.84075e-07 0)
(0.0146566 -2.52277e-07 0)
(0.0146837 -3.27759e-07 0)
(0.0147171 -4.11329e-07 0)
(0.014757 -5.03372e-07 0)
(0.0148037 -6.05069e-07 0)
(0.0148573 -7.1659e-07 0)
(0.0149181 -8.39872e-07 0)
(0.0149867 -9.74634e-07 0)
(0.0150628 -1.1241e-06 0)
(0.0151475 -1.28765e-06 0)
(0.0152403 -1.46854e-06 0)
(0.0153426 -1.67572e-06 0)
(0.0154363 -1.86561e-06 0)
(0.0155142 -2.01452e-06 0)
(0.0155935 -2.17497e-06 0)
(0.0156755 -2.35603e-06 0)
(0.0157597 -2.54398e-06 0)
(0.0158462 -2.74369e-06 0)
(0.0159347 -2.95721e-06 0)
(0.0160256 -3.18505e-06 0)
(0.0161185 -3.43325e-06 0)
(0.016214 -3.69985e-06 0)
(0.0163116 -3.99858e-06 0)
(0.0164124 -4.32094e-06 0)
(0.0165154 -4.70115e-06 0)
(0.0166233 -5.10696e-06 0)
(0.0167331 -5.63838e-06 0)
(0.0168519 -6.16786e-06 0)
(0.0169708 -7.04423e-06 0)
(0.01711 -7.71889e-06 0)
(0.0172393 -9.62466e-06 0)
(0.0174285 -1.02164e-05 0)
(0.0175595 -1.62291e-05 0)
(0.0179132 -1.53065e-05 0)
(0.0179896 -4.83859e-05 0)
(0.0191923 -7.01305e-05 0)
(0.0195843 -0.00200545 0)
(0.107627 0.00277715 0)
(0.0541437 7.36674e-05 0)
(0.0417965 2.06074e-05 0)
(0.0360675 1.01621e-05 0)
(0.0331844 5.93547e-06 0)
(0.0312278 4.5358e-06 0)
(0.0296324 3.79196e-06 0)
(0.0283673 3.12016e-06 0)
(0.0273637 2.61758e-06 0)
(0.0265339 2.27259e-06 0)
(0.0258305 2.00936e-06 0)
(0.0252279 1.79548e-06 0)
(0.0247062 1.62208e-06 0)
(0.0242493 1.48039e-06 0)
(0.0238457 1.3622e-06 0)
(0.0234864 1.26214e-06 0)
(0.0231646 1.17662e-06 0)
(0.0228747 1.10285e-06 0)
(0.0226122 1.03866e-06 0)
(0.0223734 9.82363e-07 0)
(0.0221554 9.32644e-07 0)
(0.0219555 8.88447e-07 0)
(0.0217718 8.48912e-07 0)
(0.0216024 8.13328e-07 0)
(0.0214458 7.81098e-07 0)
(0.0213008 7.51707e-07 0)
(0.0211661 7.24706e-07 0)
(0.021041 6.99686e-07 0)
(0.0209244 6.7627e-07 0)
(0.0208159 6.54098e-07 0)
(0.0207146 6.32817e-07 0)
(0.0206203 6.12068e-07 0)
(0.0205324 5.91484e-07 0)
(0.0204505 5.70681e-07 0)
(0.0203745 5.4925e-07 0)
(0.0203042 5.26755e-07 0)
(0.0202392 5.02728e-07 0)
(0.0201797 4.76666e-07 0)
(0.0201255 4.48029e-07 0)
(0.0200766 4.16243e-07 0)
(0.0200332 3.80694e-07 0)
(0.0199952 3.40732e-07 0)
(0.0199629 2.95675e-07 0)
(0.0199363 2.44801e-07 0)
(0.0199157 1.87368e-07 0)
(0.0199013 1.22586e-07 0)
(0.0198934 4.9665e-08 0)
(0.0198921 -3.22584e-08 0)
(0.0198979 -1.24009e-07 0)
(0.0199109 -2.26549e-07 0)
(0.0199314 -3.40703e-07 0)
(0.0199598 -4.67601e-07 0)
(0.0199964 -6.08038e-07 0)
(0.0200414 -7.63515e-07 0)
(0.0200953 -9.34745e-07 0)
(0.0201582 -1.12392e-06 0)
(0.0202306 -1.33136e-06 0)
(0.0203128 -1.56066e-06 0)
(0.0204054 -1.81129e-06 0)
(0.0205082 -2.08925e-06 0)
(0.0206226 -2.39335e-06 0)
(0.0207481 -2.72969e-06 0)
(0.0208863 -3.11464e-06 0)
(0.0210129 -3.4676e-06 0)
(0.0211181 -3.74475e-06 0)
(0.0212253 -4.04285e-06 0)
(0.0213361 -4.37908e-06 0)
(0.0214499 -4.72823e-06 0)
(0.0215667 -5.09917e-06 0)
(0.0216864 -5.49566e-06 0)
(0.0218091 -5.91871e-06 0)
(0.0219346 -6.37937e-06 0)
(0.0220635 -6.87418e-06 0)
(0.0221953 -7.42828e-06 0)
(0.0223314 -8.02634e-06 0)
(0.0224704 -8.7309e-06 0)
(0.022616 -9.48363e-06 0)
(0.0227643 -1.04668e-05 0)
(0.0229243 -1.14497e-05 0)
(0.0230847 -1.3066e-05 0)
(0.023272 -1.43255e-05 0)
(0.0234466 -1.7821e-05 0)
(0.0236999 -1.89745e-05 0)
(0.0238785 -2.99243e-05 0)
(0.0243472 -2.85875e-05 0)
(0.0244618 -8.75328e-05 0)
(0.0260084 -0.000124266 0)
(0.0264622 -0.00259394 0)
(0.140184 0.00364924 0)
(0.0714348 0.000127264 0)
(0.0551926 3.60551e-05 0)
(0.0476354 1.78134e-05 0)
(0.0438225 1.04131e-05 0)
(0.0412378 7.95142e-06 0)
(0.0391326 6.64505e-06 0)
(0.0374629 5.46864e-06 0)
(0.036138 4.58809e-06 0)
(0.0350427 3.98321e-06 0)
(0.0341143 3.52177e-06 0)
(0.0333189 3.14692e-06 0)
(0.0326302 2.84301e-06 0)
(0.0320271 2.59466e-06 0)
(0.0314943 2.38751e-06 0)
(0.0310201 2.21214e-06 0)
(0.0305954 2.06224e-06 0)
(0.0302127 1.93296e-06 0)
(0.0298662 1.82045e-06 0)
(0.029551 1.72178e-06 0)
(0.0292632 1.63464e-06 0)
(0.0289994 1.55718e-06 0)
(0.0287569 1.48789e-06 0)
(0.0285333 1.42552e-06 0)
(0.0283266 1.36904e-06 0)
(0.0281352 1.31753e-06 0)
(0.0279574 1.27021e-06 0)
(0.0277922 1.22637e-06 0)
(0.0276384 1.18534e-06 0)
(0.027495 1.1465e-06 0)
(0.0273614 1.10923e-06 0)
(0.0272369 1.07289e-06 0)
(0.0271208 1.03686e-06 0)
(0.0270127 1.00045e-06 0)
(0.0269124 9.62952e-07 0)
(0.0268194 9.23606e-07 0)
(0.0267337 8.81595e-07 0)
(0.026655 8.36039e-07 0)
(0.0265834 7.85999e-07 0)
(0.0265188 7.30468e-07 0)
(0.0264613 6.68378e-07 0)
(0.026411 5.98593e-07 0)
(0.0263682 5.19923e-07 0)
(0.0263329 4.31109e-07 0)
(0.0263055 3.30856e-07 0)
(0.0262862 2.17787e-07 0)
(0.0262754 9.05223e-08 0)
(0.0262734 -5.24425e-08 0)
(0.0262806 -2.12546e-07 0)
(0.0262972 -3.91465e-07 0)
(0.0263239 -5.9064e-07 0)
(0.0263608 -8.12034e-07 0)
(0.0264084 -1.05704e-06 0)
(0.0264671 -1.32826e-06 0)
(0.0265374 -1.62694e-06 0)
(0.0266196 -1.9569e-06 0)
(0.0267143 -2.3187e-06 0)
(0.0268217 -2.71857e-06 0)
(0.0269427 -3.15562e-06 0)
(0.0270773 -3.64023e-06 0)
(0.0272269 -4.17041e-06 0)
(0.027391 -4.75668e-06 0)
(0.0275718 -5.42719e-06 0)
(0.0277375 -6.04229e-06 0)
(0.0278752 -6.52591e-06 0)
(0.0280154 -7.04516e-06 0)
(0.0281604 -7.63037e-06 0)
(0.0283092 -8.23836e-06 0)
(0.028462 -8.88414e-06 0)
(0.0286185 -9.57422e-06 0)
(0.028779 -1.03104e-05 0)
(0.0289431 -1.11117e-05 0)
(0.0291116 -1.19725e-05 0)
(0.0292838 -1.29355e-05 0)
(0.0294617 -1.39754e-05 0)
(0.0296433 -1.51983e-05 0)
(0.0298334 -1.65071e-05 0)
(0.030027 -1.82097e-05 0)
(0.0302357 -1.99211e-05 0)
(0.0304452 -2.27082e-05 0)
(0.0306888 -2.49188e-05 0)
(0.0309171 -3.09015e-05 0)
(0.0312447 -3.30401e-05 0)
(0.0314804 -5.16002e-05 0)
(0.0320794 -5.01091e-05 0)
(0.0322446 -0.000147474 0)
(0.0341512 -0.00020527 0)
(0.0346385 -0.00322061 0)
(0.178266 0.00468896 0)
(0.0922508 0.000209909 0)
(0.0713481 6.03837e-05 0)
(0.0615916 2.98989e-05 0)
(0.0566538 1.74953e-05 0)
(0.0533108 1.33473e-05 0)
(0.0505919 1.11495e-05 0)
(0.0484349 9.17735e-06 0)
(0.0467228 7.7003e-06 0)
(0.0453075 6.68473e-06 0)
(0.0441078 5.91018e-06 0)
(0.0430802 5.28117e-06 0)
(0.0421903 4.77116e-06 0)
(0.0414111 4.35436e-06 0)
(0.0407227 4.00672e-06 0)
(0.04011 3.71241e-06 0)
(0.0395612 3.46085e-06 0)
(0.0390667 3.24389e-06 0)
(0.038619 3.05508e-06 0)
(0.0382118 2.8895e-06 0)
(0.0378399 2.74326e-06 0)
(0.0374991 2.61327e-06 0)
(0.0371857 2.49699e-06 0)
(0.0368968 2.39234e-06 0)
(0.0366298 2.29755e-06 0)
(0.0363824 2.21112e-06 0)
(0.0361527 2.13173e-06 0)
(0.0359392 2.05818e-06 0)
(0.0357404 1.98935e-06 0)
(0.0355552 1.92421e-06 0)
(0.0353826 1.8617e-06 0)
(0.0352216 1.80079e-06 0)
(0.0350716 1.7404e-06 0)
(0.0349319 1.6794e-06 0)
(0.0348022 1.6166e-06 0)
(0.034682 1.55074e-06 0)
(0.0345712 1.48044e-06 0)
(0.0344694 1.40424e-06 0)
(0.0343767 1.32056e-06 0)
(0.0342931 1.22774e-06 0)
(0.0342186 1.12398e-06 0)
(0.0341534 1.00738e-06 0)
(0.0340977 8.75965e-07 0)
(0.0340518 7.2763e-07 0)
(0.034016 5.60213e-07 0)
(0.0339907 3.71416e-07 0)
(0.0339762 1.58939e-07 0)
(0.0339731 -7.97285e-08 0)
(0.0339817 -3.46987e-07 0)
(0.0340025 -6.45629e-07 0)
(0.0340361 -9.7806e-07 0)
(0.0340829 -1.34754e-06 0)
(0.0341434 -1.75641e-06 0)
(0.0342182 -2.20898e-06 0)
(0.0343078 -2.70735e-06 0)
(0.0344126 -3.25784e-06 0)
(0.0345335 -3.86141e-06 0)
(0.0346706 -4.52837e-06 0)
(0.0348252 -5.25734e-06 0)
(0.0349971 -6.06541e-06 0)
(0.0351884 -6.94948e-06 0)
(0.0353981 -7.92684e-06 0)
(0.0356292 -9.04365e-06 0)
(0.0358409 -1.00688e-05 0)
(0.0360168 -1.0876e-05 0)
(0.0361961 -1.17409e-05 0)
(0.0363814 -1.27147e-05 0)
(0.0365715 -1.37271e-05 0)
(0.0367668 -1.4802e-05 0)
(0.0369667 -1.59503e-05 0)
(0.0371717 -1.71753e-05 0)
(0.0373813 -1.85076e-05 0)
(0.0375965 -1.9939e-05 0)
(0.0378163 -2.15385e-05 0)
(0.0380433 -2.3267e-05 0)
(0.0382751 -2.52949e-05 0)
(0.0385174 -2.74703e-05 0)
(0.0387644 -3.02856e-05 0)
(0.0390301 -3.31356e-05 0)
(0.0392971 -3.77185e-05 0)
(0.0396064 -4.14366e-05 0)
(0.0398977 -5.11796e-05 0)
(0.0403107 -5.50093e-05 0)
(0.0406145 -8.48533e-05 0)
(0.0413586 -8.40134e-05 0)
(0.0415892 -0.000235824 0)
(0.0438592 -0.000321902 0)
(0.04434 -0.00386786 0)
(0.222505 0.00592415 0)
(0.117284 0.000334422 0)
(0.090818 9.79876e-05 0)
(0.078419 4.86431e-05 0)
(0.0721204 2.84983e-05 0)
(0.0678625 2.17179e-05 0)
(0.0644055 1.81322e-05 0)
(0.0616621 1.49282e-05 0)
(0.0594837 1.25269e-05 0)
(0.0576831 1.0874e-05 0)
(0.0561571 9.61378e-06 0)
(0.0548497 8.59069e-06 0)
(0.0537177 7.76111e-06 0)
(0.0527264 7.08309e-06 0)
(0.0518507 6.51758e-06 0)
(0.0510713 6.03884e-06 0)
(0.0503731 5.62965e-06 0)
(0.0497441 5.27672e-06 0)
(0.0491745 4.96961e-06 0)
(0.0486565 4.70026e-06 0)
(0.0481834 4.46238e-06 0)
(0.0477498 4.25094e-06 0)
(0.0473512 4.0618e-06 0)
(0.0469837 3.89158e-06 0)
(0.0466439 3.73741e-06 0)
(0.0463292 3.59684e-06 0)
(0.046037 3.46773e-06 0)
(0.0457654 3.34812e-06 0)
(0.0455125 3.23623e-06 0)
(0.0452769 3.13033e-06 0)
(0.0450572 3.02875e-06 0)
(0.0448524 2.92979e-06 0)
(0.0446615 2.83171e-06 0)
(0.0444837 2.7327e-06 0)
(0.0443186 2.63081e-06 0)
(0.0441656 2.524e-06 0)
(0.0440244 2.41005e-06 0)
(0.0438948 2.28658e-06 0)
(0.0437767 2.15107e-06 0)
(0.04367 2.00079e-06 0)
(0.043575 1.83286e-06 0)
(0.0434917 1.64421e-06 0)
(0.0434204 1.43164e-06 0)
(0.0433615 1.19175e-06 0)
(0.0433154 9.21042e-07 0)
(0.0432825 6.15811e-07 0)
(0.0432634 2.72339e-07 0)
(0.0432585 -1.13426e-07 0)
(0.0432684 -5.45362e-07 0)
(0.0432938 -1.02797e-06 0)
(0.0433353 -1.56514e-06 0)
(0.0433934 -2.16213e-06 0)
(0.0434689 -2.82269e-06 0)
(0.0435623 -3.55378e-06 0)
(0.0436744 -4.3588e-06 0)
(0.0438056 -5.24787e-06 0)
(0.0439571 -6.22262e-06 0)
(0.0441291 -7.2995e-06 0)
(0.044323 -8.47649e-06 0)
(0.0445387 -9.78074e-06 0)
(0.0447787 -1.12077e-05 0)
(0.045042 -1.27847e-05 0)
(0.045332 -1.45848e-05 0)
(0.0455977 -1.62385e-05 0)
(0.0458186 -1.75428e-05 0)
(0.0460436 -1.8937e-05 0)
(0.0462762 -2.05048e-05 0)
(0.0465148 -2.21359e-05 0)
(0.0467598 -2.38672e-05 0)
(0.0470107 -2.57158e-05 0)
(0.0472678 -2.76877e-05 0)
(0.0475307 -2.98306e-05 0)
(0.0478005 -3.21333e-05 0)
(0.0480761 -3.47026e-05 0)
(0.0483605 -3.74817e-05 0)
(0.0486509 -4.07323e-05 0)
(0.0489542 -4.423e-05 0)
(0.0492633 -4.87263e-05 0)
(0.0495954 -5.33192e-05 0)
(0.0499293 -6.05881e-05 0)
(0.0503144 -6.66504e-05 0)
(0.0506791 -8.19172e-05 0)
(0.0511892 -8.85967e-05 0)
(0.0515732 -0.0001346 0)
(0.0524759 -0.000136224 0)
(0.0527879 -0.000361783 0)
(0.0554071 -0.00048438 0)
(0.0558303 -0.00451113 0)
(0.273474 0.00738491 0)
(0.147344 0.000518375 0)
(0.114262 0.00015529 0)
(0.0986933 7.73233e-05 0)
(0.0907487 4.53683e-05 0)
(0.0853878 3.45291e-05 0)
(0.0810444 2.88098e-05 0)
(0.0775961 2.37253e-05 0)
(0.0748568 1.99115e-05 0)
(0.0725928 1.72829e-05 0)
(0.0706743 1.52794e-05 0)
(0.0690307 1.36535e-05 0)
(0.0676074 1.23351e-05 0)
(0.0663611 1.12575e-05 0)
(0.0652601 1.03587e-05 0)
(0.0642802 9.59779e-06 0)
(0.0634024 8.94747e-06 0)
(0.0626116 8.38655e-06 0)
(0.0618955 7.89844e-06 0)
(0.0612442 7.47036e-06 0)
(0.0606494 7.09231e-06 0)
(0.0601043 6.75626e-06 0)
(0.0596031 6.45568e-06 0)
(0.059141 6.18516e-06 0)
(0.0587139 5.94016e-06 0)
(0.0583181 5.7168e-06 0)
(0.0579508 5.51165e-06 0)
(0.0576093 5.32164e-06 0)
(0.0572913 5.1439e-06 0)
(0.056995 4.97574e-06 0)
(0.0567187 4.81448e-06 0)
(0.0564611 4.65744e-06 0)
(0.056221 4.50187e-06 0)
(0.0559975 4.3449e-06 0)
(0.0557897 4.18347e-06 0)
(0.0555972 4.01433e-06 0)
(0.0554195 3.83399e-06 0)
(0.0552562 3.6387e-06 0)
(0.0551074 3.42447e-06 0)
(0.0549729 3.187e-06 0)
(0.0548529 2.92175e-06 0)
(0.0547476 2.62388e-06 0)
(0.0546574 2.28833e-06 0)
(0.0545826 1.90974e-06 0)
(0.0545237 1.48262e-06 0)
(0.0544814 1.00111e-06 0)
(0.0544561 4.59357e-07 0)
(0.0544487 -1.49019e-07 0)
(0.0544597 -8.30128e-07 0)
(0.0544899 -1.59105e-06 0)
(0.0545402 -2.43792e-06 0)
(0.0546111 -3.37897e-06 0)
(0.0547036 -4.42015e-06 0)
(0.0548184 -5.57233e-06 0)
(0.0549565 -6.84091e-06 0)
(0.0551183 -8.24167e-06 0)
(0.0553053 -9.77733e-06 0)
(0.0555177 -1.14734e-05 0)
(0.0557573 -1.33272e-05 0)
(0.056024 -1.53805e-05 0)
(0.0563207 -1.7627e-05 0)
(0.0566463 -2.01087e-05 0)
(0.0570051 -2.29381e-05 0)
(0.0573335 -2.55398e-05 0)
(0.0576067 -2.75956e-05 0)
(0.0578852 -2.97874e-05 0)
(0.0581727 -3.2248e-05 0)
(0.0584678 -3.48102e-05 0)
(0.0587707 -3.75287e-05 0)
(0.0590808 -4.04299e-05 0)
(0.0593986 -4.35242e-05 0)
(0.0597233 -4.68833e-05 0)
(0.0600566 -5.04938e-05 0)
(0.0603969 -5.45146e-05 0)
(0.0607478 -5.88693e-05 0)
(0.0611061 -6.39433e-05 0)
(0.0614799 -6.94236e-05 0)
(0.0618609 -7.64105e-05 0)
(0.0622692 -8.36256e-05 0)
(0.0626805 -9.48247e-05 0)
(0.063152 -0.000104475 0)
(0.0636013 -0.000127643 0)
(0.06422 -0.000139042 0)
(0.0646972 -0.0002074 0)
(0.0657687 -0.000215017 0)
(0.0661779 -0.000535793 0)
(0.0691107 -0.000704118 0)
(0.0694165 -0.0051197 0)
(0.331613 0.00910229 0)
(0.18337 0.000785359 0)
(0.142459 0.000241625 0)
(0.123097 0.00012075 0)
(0.113163 7.09758e-05 0)
(0.106473 5.39352e-05 0)
(0.101067 4.49664e-05 0)
(0.096773 3.70425e-05 0)
(0.0933598 3.1093e-05 0)
(0.0905393 2.69858e-05 0)
(0.0881495 2.38564e-05 0)
(0.086102 2.13183e-05 0)
(0.084329 1.92599e-05 0)
(0.0827766 1.75772e-05 0)
(0.081405 1.61738e-05 0)
(0.0801843 1.49858e-05 0)
(0.0790908 1.39704e-05 0)
(0.0781056 1.30946e-05 0)
(0.0772136 1.23325e-05 0)
(0.0764022 1.16642e-05 0)
(0.0756612 1.10739e-05 0)
(0.0749822 1.05492e-05 0)
(0.0743578 1.00799e-05 0)
(0.0737822 9.65759e-06 0)
(0.07325 9.27513e-06 0)
(0.0727571 8.92646e-06 0)
(0.0722994 8.60626e-06 0)
(0.0718739 8.30972e-06 0)
(0.0714778 8.03242e-06 0)
(0.0711086 7.77011e-06 0)
(0.0707643 7.51867e-06 0)
(0.0704433 7.27393e-06 0)
(0.0701441 7.03163e-06 0)
(0.0698654 6.78728e-06 0)
(0.0696064 6.53617e-06 0)
(0.0693663 6.27325e-06 0)
(0.0691445 5.99311e-06 0)
(0.0689408 5.68998e-06 0)
(0.0687549 5.35764e-06 0)
(0.0685867 4.98946e-06 0)
(0.0684366 4.57841e-06 0)
(0.0683046 4.117e-06 0)
(0.0681912 3.59742e-06 0)
(0.0680968 3.01138e-06 0)
(0.0680222 2.35037e-06 0)
(0.0679679 1.60536e-06 0)
(0.0679347 7.67296e-07 0)
(0.0679234 -1.73668e-07 0)
(0.0679348 -1.22698e-06 0)
(0.06797 -2.40354e-06 0)
(0.0680297 -3.71283e-06 0)
(0.0681149 -5.16752e-06 0)
(0.0682266 -6.77681e-06 0)
(0.0683656 -8.55737e-06 0)
(0.0685333 -1.05176e-05 0)
(0.0687301 -1.26816e-05 0)
(0.0689578 -1.50537e-05 0)
(0.0692166 -1.76728e-05 0)
(0.0695089 -2.05354e-05 0)
(0.0698342 -2.37044e-05 0)
(0.0701963 -2.71719e-05 0)
(0.0705938 -3.10001e-05 0)
(0.0710318 -3.53584e-05 0)
(0.0714326 -3.93704e-05 0)
(0.0717662 -4.25476e-05 0)
(0.0721063 -4.59245e-05 0)
(0.0724573 -4.97081e-05 0)
(0.0728174 -5.36518e-05 0)
(0.0731871 -5.78341e-05 0)
(0.0735653 -6.22944e-05 0)
(0.0739529 -6.7051e-05 0)
(0.0743489 -7.22078e-05 0)
(0.074755 -7.77527e-05 0)
(0.0751696 -8.3913e-05 0)
(0.0755968 -9.05946e-05 0)
(0.0760329 -9.8344e-05 0)
(0.0764873 -0.000106751 0)
(0.0769504 -0.000117363 0)
(0.0774456 -0.000128464 0)
(0.0779447 -0.000145296 0)
(0.0785136 -0.000160361 0)
(0.0790587 -0.000194533 0)
(0.0797968 -0.000213602 0)
(0.0803798 -0.000311753 0)
(0.0816252 -0.000331592 0)
(0.0821444 -0.000768679 0)
(0.0853324 -0.000993319 0)
(0.0854568 -0.0056596 0)
(0.397132 0.0111059 0)
(0.226417 0.00116624 0)
(0.176322 0.000370447 0)
(0.152435 0.000185953 0)
(0.140098 0.000109543 0)
(0.131811 8.30905e-05 0)
(0.125133 6.92084e-05 0)
(0.119826 5.70349e-05 0)
(0.115605 4.7884e-05 0)
(0.112117 4.15542e-05 0)
(0.109162 3.67336e-05 0)
(0.106631 3.28262e-05 0)
(0.104438 2.96569e-05 0)