/*--------------------------------*- C++ -*----------------------------------*\
| =========                 |                                                 |
| \\      /  F ield         | OpenFOAM: The Open Source CFD Toolbox           |
|  \\    /   O peration     | Version:  2506                                  |
|   \\  /    A nd           | Website:  www.openfoam.com                      |
|    \\/     M anipulation  |                                                 |
\*---------------------------------------------------------------------------*/
FoamFile
{
    version     2.0;
    format      ascii;
    arch        "LSB;label=32;scalar=64";
    class       volVectorField;
    location    "2000";
    object      U;
}
// * * * * * * * * * * * * * * * * * * * * * * * * * * * * * * * * * * * * * //

dimensions      [0 1 -1 0 0 0 0];

internalField   nonuniform List<vector> 
20540
(
(37.5421 -4.01313e-05 0)
(46.9796 0.00501717 0)
(37.5413 -0.000132172 0)
(47.0182 0.0160579 0)
(37.5402 -0.000249519 0)
(47.0684 0.0293352 0)
(37.5388 -0.000401088 0)
(47.1323 0.0452809 0)
(37.5369 -0.000598967 0)
(47.2128 0.0644049 0)
(37.5345 -0.000860238 0)
(47.3127 0.0873008 0)
(37.5314 -0.00120902 0)
(47.4354 0.114653 0)
(37.5275 -0.00167926 0)
(47.5844 0.147242 0)
(37.5224 -0.00231872 0)
(47.7633 0.185946 0)
(37.5161 -0.00319427 0)
(47.976 0.231729 0)
(37.5082 -0.0043991 0)
(48.2255 0.285624 0)
(37.4985 -0.00606203 0)
(48.5144 0.348688 0)
(37.487 -0.00835903 0)
(48.8434 0.421932 0)
(37.4739 -0.0115269 0)
(49.2103 0.506213 0)
(37.4599 -0.0158778 0)
(49.6084 0.602063 0)
(37.4471 -0.0218109 0)
(50.0245 0.709458 0)
(37.4393 -0.0298166 0)
(50.436 0.827493 0)
(37.4437 -0.0404602 0)
(50.8078 0.953966 0)
(37.4727 -0.0543275 0)
(51.0896 1.08488 0)
(37.5462 -0.0719064 0)
(51.2145 1.21392 0)
(37.6942 -0.0933686 0)
(51.1008 1.33202 0)
(37.9573 -0.118222 0)
(50.6622 1.42733 0)
(38.3834 -0.144835 0)
(49.8297 1.48591 0)
(39.0159 -0.169949 0)
(48.5901 1.49381 0)
(39.8704 -0.188532 0)
(47.0383 1.44106 0)
(40.9048 -0.194673 0)
(45.4172 1.32685 0)
(41.9994 -0.184134 0)
(44.0898 1.16325 0)
(42.9762 -0.157733 0)
(43.3845 0.971301 0)
(43.6718 -0.121985 0)
(43.3551 0.766466 0)
(44.0354 -0.0842859 0)
(43.6932 0.545052 0)
(44.1481 -0.0536357 0)
(43.9618 0.315641 0)
(44.1734 -0.0301901 0)
(44.071 0.0903974 0)
(44.1727 -0.00849995 0)
(44.0725 -0.134852 0)
(44.1448 0.0150175 0)
(43.9685 -0.359826 0)
(44.0293 0.0445786 0)
(43.7203 -0.585299 0)
(43.6864 0.079327 0)
(43.4258 -0.799351 0)
(43.0533 0.112003 0)
(43.4532 -0.995425 0)
(42.1763 0.136492 0)
(44.059 -1.17706 0)
(41.1932 0.147294 0)
(45.2011 -1.33163 0)
(40.2545 0.143568 0)
(46.6038 -1.44108 0)
(39.4632 0.128781 0)
(47.9513 -1.49429 0)
(38.8583 0.107999 0)
(49.023 -1.49107 0)
(38.4298 0.0856846 0)
(49.7252 -1.43957 0)
(38.1429 0.0648207 0)
(50.0622 -1.35198 0)
(37.958 0.0469539 0)
(50.0928 -1.24095 0)
(37.8408 0.0325827 0)
(49.8949 -1.11763 0)
(37.766 0.0215728 0)
(49.5451 -0.990783 0)
(37.7165 0.0134772 0)
(49.1077 -0.866714 0)
(37.6817 0.00774417 0)
(48.6322 -0.749603 0)
(37.6553 0.00383549 0)
(48.1538 -0.64191 0)
(37.6339 0.00128213 0)
(47.6957 -0.544822 0)
(37.6156 -0.000297106 0)
(47.2719 -0.458628 0)
(37.5996 -0.00119757 0)
(46.8896 -0.383027 0)
(37.5855 -0.00163989 0)
(46.5516 -0.317351 0)
(37.573 -0.00178399 0)
(46.2572 -0.260737 0)
(37.562 -0.00174281 0)
(46.0042 -0.212241 0)
(37.5525 -0.00159403 0)
(45.7892 -0.170909 0)
(37.5442 -0.0013897 0)
(45.6083 -0.13583 0)
(37.5372 -0.00116361 0)
(45.4575 -0.106159 0)
(37.5313 -0.000936833 0)
(45.3332 -0.0811334 0)
(37.5263 -0.000721752 0)
(45.2317 -0.0600741 0)
(37.5223 -0.000524984 0)
(45.1497 -0.0423867 0)
(37.519 -0.000349349 0)
(45.0844 -0.0275542 0)
(37.5164 -0.00019524 0)
(45.033 -0.0151309 0)
(37.5144 -6.20389e-05 0)
(44.9933 -0.00473816 0)
(0.114646 0.00551091 0)
(0.0722476 2.13083e-06 0)
(0.0569369 7.55687e-07 0)
(0.0521 2.9469e-07 0)
(0.0494 1.97124e-07 0)
(0.0472641 1.59725e-07 0)
(0.0456235 1.26754e-07 0)
(0.0443743 1.02937e-07 0)
(0.0433634 8.74181e-08 0)
(0.0425253 7.56106e-08 0)
(0.0418224 6.62448e-08 0)
(0.0412244 5.88382e-08 0)
(0.0407092 5.28483e-08 0)
(0.040261 4.78953e-08 0)
(0.0398679 4.37453e-08 0)
(0.0395207 4.02277e-08 0)
(0.039212 3.72125e-08 0)
(0.0389361 3.46026e-08 0)
(0.0386884 3.23244e-08 0)
(0.0384649 3.032e-08 0)
(0.0382625 2.85437e-08 0)
(0.0380787 2.69585e-08 0)
(0.0379112 2.55347e-08 0)
(0.0377581 2.4247e-08 0)
(0.0376178 2.30742e-08 0)
(0.0374891 2.19971e-08 0)
(0.0373708 2.09988e-08 0)
(0.0372619 2.00626e-08 0)
(0.0371617 1.91737e-08 0)
(0.0370693 1.83159e-08 0)
(0.0369843 1.7475e-08 0)
(0.0369061 1.66338e-08 0)
(0.0368345 1.57765e-08 0)
(0.0367692 1.48828e-08 0)
(0.03671 1.39321e-08 0)
(0.0366568 1.28987e-08 0)
(0.0366097 1.17562e-08 0)
(0.0365687 1.04728e-08 0)
(0.036534 9.01589e-09 0)
(0.0365058 7.34812e-09 0)
(0.0364845 5.43071e-09 0)
(0.0364705 3.22054e-09 0)
(0.0364641 6.72668e-10 0)
(0.036466 -2.26222e-09 0)
(0.0364767 -5.63439e-09 0)
(0.0364967 -9.49776e-09 0)
(0.0365269 -1.39106e-08 0)
(0.0365678 -1.89343e-08 0)
(0.0366202 -2.46309e-08 0)
(0.0366848 -3.10669e-08 0)
(0.0367625 -3.83093e-08 0)
(0.0368539 -4.64336e-08 0)
(0.0369601 -5.55124e-08 0)
(0.0370817 -6.56372e-08 0)
(0.0372196 -7.6894e-08 0)
(0.0373747 -8.94039e-08 0)
(0.037548 -1.03282e-07 0)
(0.0377403 -1.18708e-07 0)
(0.037953 -1.35825e-07 0)
(0.0381867 -1.54945e-07 0)
(0.0384437 -1.76268e-07 0)
(0.0387244 -2.00173e-07 0)
(0.0390324 -2.28002e-07 0)
(0.0393146 -2.53834e-07 0)
(0.039549 -2.75298e-07 0)
(0.0397898 -2.9892e-07 0)
(0.0400395 -3.252e-07 0)
(0.0402973 -3.53346e-07 0)
(0.0405639 -3.84279e-07 0)
(0.0408396 -4.18135e-07 0)
(0.0411251 -4.55716e-07 0)
(0.0414212 -4.97576e-07 0)
(0.041729 -5.44803e-07 0)
(0.0420499 -5.98513e-07 0)
(0.0423858 -6.60385e-07 0)
(0.0427388 -7.32721e-07 0)
(0.0431126 -8.18145e-07 0)
(0.0435103 -9.22297e-07 0)
(0.0439396 -1.04811e-06 0)
(0.0444032 -1.21415e-06 0)
(0.0449245 -1.41334e-06 0)
(0.0454894 -1.72734e-06 0)
(0.0461968 -2.06937e-06 0)
(0.0469139 -2.89967e-06 0)
(0.0481677 -3.83173e-06 0)
(0.0492273 -9.63367e-06 0)
(0.0542504 -3.28927e-05 0)
(0.0657823 -0.00906252 0)
(0.366995 0.0176634 0)
(0.231696 3.34127e-05 0)
(0.182668 1.2065e-05 0)
(0.167143 4.71114e-06 0)
(0.15848 3.14789e-06 0)
(0.15163 2.55023e-06 0)
(0.146369 2.02494e-06 0)
(0.142362 1.64464e-06 0)
(0.13912 1.39676e-06 0)
(0.136432 1.20825e-06 0)
(0.134178 1.0587e-06 0)
(0.13226 9.40404e-07 0)
(0.130608 8.44719e-07 0)
(0.12917 7.65581e-07 0)
(0.12791 6.9925e-07 0)
(0.126796 6.43002e-07 0)
(0.125806 5.94762e-07 0)
(0.124922 5.52987e-07 0)
(0.124127 5.16502e-07 0)
(0.12341 4.84392e-07 0)
(0.122761 4.5593e-07 0)
(0.122172 4.30535e-07 0)
(0.121635 4.07729e-07 0)
(0.121144 3.87113e-07 0)
(0.120694 3.68346e-07 0)
(0.120281 3.51131e-07 0)
(0.119902 3.35197e-07 0)
(0.119553 3.20292e-07 0)
(0.119231 3.06172e-07 0)
(0.118935 2.9259e-07 0)
(0.118662 2.79292e-07 0)
(0.118411 2.66006e-07 0)
(0.118182 2.52441e-07 0)
(0.117972 2.38276e-07 0)
(0.117782 2.23158e-07 0)
(0.117612 2.06697e-07 0)
(0.117461 1.88459e-07 0)
(0.117329 1.67969e-07 0)
(0.117218 1.44698e-07 0)
(0.117127 1.18072e-07 0)
(0.117059 8.74639e-08 0)
(0.117014 5.21947e-08 0)
(0.116993 1.15393e-08 0)
(0.116999 -3.52822e-08 0)
(0.117033 -8.90747e-08 0)
(0.117097 -1.50692e-07 0)
(0.117194 -2.21061e-07 0)
(0.117325 -3.0116e-07 0)
(0.117492 -3.91972e-07 0)
(0.117699 -4.94563e-07 0)
(0.117948 -6.10003e-07 0)
(0.118241 -7.3952e-07 0)
(0.11858 -8.84283e-07 0)
(0.11897 -1.04581e-06 0)
(0.119411 -1.22539e-06 0)
(0.119908 -1.42517e-06 0)
(0.120463 -1.64646e-06 0)
(0.121078 -1.89281e-06 0)
(0.121759 -2.16537e-06 0)
(0.122508 -2.47054e-06 0)
(0.123331 -2.80958e-06 0)
(0.124229 -3.19184e-06 0)
(0.125215 -3.6339e-06 0)
(0.126119 -4.04452e-06 0)
(0.126869 -4.3882e-06 0)
(0.12764 -4.76377e-06 0)
(0.12844 -5.18198e-06 0)
(0.129265 -5.63051e-06 0)
(0.130118 -6.12216e-06 0)
(0.131001 -6.66143e-06 0)
(0.131915 -7.25852e-06 0)
(0.132863 -7.9247e-06 0)
(0.133848 -8.67459e-06 0)
(0.134875 -9.5283e-06 0)
(0.13595 -1.051e-05 0)
(0.137079 -1.1659e-05 0)
(0.138275 -1.3013e-05 0)
(0.139548 -1.46694e-05 0)
(0.140921 -1.66576e-05 0)
(0.142404 -1.93164e-05 0)
(0.144071 -2.24204e-05 0)
(0.145879 -2.75782e-05 0)
(0.14814 -3.26135e-05 0)
(0.150444 -4.71108e-05 0)
(0.154443 -5.93547e-05 0)
(0.157915 -0.000158667 0)
(0.173581 -0.000466989 0)
(0.208745 -0.0285355 0)
(0.670839 0.032327 0)
(0.424299 0.000117195 0)
(0.334646 4.24629e-05 0)
(0.306191 1.66009e-05 0)
(0.290319 1.10863e-05 0)
(0.277776 8.97966e-06 0)
(0.268141 7.13056e-06 0)
(0.260803 5.79134e-06 0)
(0.254866 4.91827e-06 0)
(0.249943 4.25446e-06 0)
(0.245815 3.72781e-06 0)
(0.242303 3.31125e-06 0)
(0.239277 2.97431e-06 0)
(0.236644 2.69564e-06 0)
(0.234336 2.46207e-06 0)
(0.232297 2.26401e-06 0)
(0.230484 2.09416e-06 0)
(0.228864 1.94707e-06 0)
(0.227408 1.81861e-06 0)
(0.226096 1.70556e-06 0)
(0.224908 1.60535e-06 0)
(0.223828 1.51594e-06 0)
(0.222844 1.43565e-06 0)
(0.221945 1.36307e-06 0)
(0.221122 1.29699e-06 0)
(0.220366 1.23638e-06 0)
(0.219671 1.18027e-06 0)
(0.219032 1.12779e-06 0)
(0.218443 1.07806e-06 0)
(0.2179 1.03023e-06 0)
(0.217401 9.83392e-07 0)
(0.216942 9.36604e-07 0)
(0.216521 8.88839e-07 0)
(0.216138 8.38974e-07 0)
(0.21579 7.85767e-07 0)
(0.215478 7.27846e-07 0)
(0.215201 6.63688e-07 0)
(0.21496 5.91612e-07 0)
(0.214756 5.09766e-07 0)
(0.21459 4.16124e-07 0)
(0.214464 3.08481e-07 0)
(0.214381 1.8445e-07 0)
(0.214344 4.14833e-08 0)
(0.214354 -1.23164e-07 0)
(0.214416 -3.1232e-07 0)
(0.214533 -5.28989e-07 0)
(0.214709 -7.76429e-07 0)
(0.214948 -1.05808e-06 0)
(0.215254 -1.3774e-06 0)
(0.215632 -1.73813e-06 0)
(0.216087 -2.14403e-06 0)
(0.216622 -2.59941e-06 0)
(0.217243 -3.10838e-06 0)
(0.217955 -3.67627e-06 0)
(0.218763 -4.30759e-06 0)
(0.21967 -5.00987e-06 0)
(0.220685 -5.78783e-06 0)
(0.22181 -6.65385e-06 0)
(0.223055 -7.612e-06 0)
(0.224424 -8.6848e-06 0)
(0.225928 -9.87651e-06 0)
(0.227572 -1.12202e-05 0)
(0.229374 -1.27735e-05 0)
(0.231026 -1.42163e-05 0)
(0.232398 -1.54254e-05 0)
(0.233807 -1.67444e-05 0)
(0.235268 -1.8214e-05 0)
(0.236777 -1.97896e-05 0)
(0.238337 -2.1517e-05 0)
(0.23995 -2.34112e-05 0)
(0.241621 -2.55088e-05 0)
(0.243353 -2.78484e-05 0)
(0.245153 -3.04823e-05 0)
(0.24703 -3.34802e-05 0)
(0.248994 -3.69275e-05 0)
(0.251058 -4.09621e-05 0)
(0.253243 -4.57158e-05 0)
(0.255568 -5.15312e-05 0)
(0.258077 -5.85111e-05 0)
(0.260786 -6.78469e-05 0)
(0.26383 -7.87454e-05 0)
(0.267135 -9.6875e-05 0)
(0.271259 -0.000114593 0)
(0.275484 -0.000165738 0)
(0.282767 -0.000209352 0)
(0.289249 -0.000553683 0)
(0.317305 -0.00158218 0)
(0.378757 -0.0514967 0)
(1.03634 0.0500088 0)
(0.656881 0.000287232 0)
(0.518322 0.000104379 0)
(0.474223 4.08573e-05 0)
(0.449638 2.72732e-05 0)
(0.43022 2.20865e-05 0)
(0.415302 1.75395e-05 0)
(0.403941 1.42455e-05 0)
(0.394748 1.20976e-05 0)
(0.387127 1.04647e-05 0)
(0.380736 9.16928e-06 0)
(0.375298 8.14462e-06 0)
(0.370614 7.31581e-06 0)
(0.366538 6.63034e-06 0)
(0.362964 6.05583e-06 0)
(0.359807 5.56865e-06 0)
(0.357001 5.15085e-06 0)
(0.354492 4.78905e-06 0)
(0.35224 4.47308e-06 0)
(0.350208 4.195e-06 0)
(0.348368 3.94852e-06 0)
(0.346697 3.7286e-06 0)
(0.345173 3.5311e-06 0)
(0.343782 3.35257e-06 0)
(0.342507 3.19006e-06 0)
(0.341337 3.04097e-06 0)
(0.340261 2.90298e-06 0)
(0.339271 2.77389e-06 0)
(0.338359 2.6516e-06 0)
(0.33752 2.53396e-06 0)
(0.336747 2.41878e-06 0)
(0.336036 2.30374e-06 0)
(0.335385 2.1863e-06 0)
(0.334791 2.06371e-06 0)
(0.334253 1.93292e-06 0)
(0.333769 1.79055e-06 0)
(0.33334 1.63286e-06 0)
(0.332967 1.45573e-06 0)
(0.332651 1.2546e-06 0)
(0.332394 1.02449e-06 0)
(0.332199 7.59996e-07 0)
(0.33207 4.55244e-07 0)
(0.332011 1.03974e-07 0)
(0.332027 -3.00552e-07 0)
(0.332122 -7.65286e-07 0)
(0.332303 -1.29761e-06 0)
(0.332574 -1.90552e-06 0)
(0.332943 -2.59746e-06 0)
(0.333416 -3.38193e-06 0)
(0.334 -4.26814e-06 0)
(0.334702 -5.2653e-06 0)
(0.335529 -6.384e-06 0)
(0.336489 -7.63432e-06 0)
(0.337588 -9.02937e-06 0)
(0.338836 -1.05802e-05 0)
(0.340239 -1.23053e-05 0)
(0.341806 -1.42163e-05 0)
(0.343545 -1.63435e-05 0)
(0.345469 -1.86969e-05 0)
(0.347583 -2.13319e-05 0)
(0.349908 -2.42587e-05 0)
(0.352447 -2.75588e-05 0)
(0.355233 -3.13725e-05 0)
(0.357784 -3.49152e-05 0)
(0.359904 -3.78859e-05 0)
(0.362081 -4.11239e-05 0)
(0.364339 -4.47318e-05 0)
(0.366669 -4.85998e-05 0)
(0.369079 -5.28402e-05 0)
(0.371571 -5.74899e-05 0)
(0.374151 -6.26381e-05 0)
(0.376827 -6.83804e-05 0)
(0.379607 -7.4844e-05 0)
(0.382506 -8.22006e-05 0)
(0.385538 -9.0659e-05 0)
(0.388726 -0.000100558 0)
(0.392099 -0.000112221 0)
(0.395688 -0.000126486 0)
(0.39956 -0.000143612 0)
(0.403743 -0.000166506 0)
(0.40844 -0.000193271 0)
(0.413544 -0.00023772 0)
(0.419899 -0.000281467 0)
(0.42645 -0.000406948 0)
(0.437652 -0.00051658 0)
(0.447889 -0.00134855 0)
(0.490231 -0.00376111 0)
(0.580313 -0.0783574 0)
(1.47549 0.0713185 0)
(0.937641 0.000590672 0)
(0.740262 0.000215318 0)
(0.677235 8.44071e-05 0)
(0.642121 5.63169e-05 0)
(0.614403 4.55968e-05 0)
(0.593109 3.62117e-05 0)
(0.57689 2.94113e-05 0)
(0.563768 2.4976e-05 0)
(0.552888 2.16046e-05 0)
(0.543765 1.89302e-05 0)
(0.536003 1.68146e-05 0)
(0.529316 1.51035e-05 0)
(0.523499 1.36882e-05 0)
(0.518397 1.25021e-05 0)
(0.513891 1.14963e-05 0)
(0.509885 1.06337e-05 0)
(0.506304 9.88675e-06 0)
(0.503089 9.2344e-06 0)
(0.500188 8.66029e-06 0)
(0.497562 8.15144e-06 0)
(0.495177 7.69741e-06 0)
(0.493003 7.28967e-06 0)
(0.491016 6.92109e-06 0)
(0.489196 6.58558e-06 0)
(0.487526 6.2778e-06 0)
(0.485991 5.99294e-06 0)
(0.484578 5.72647e-06 0)
(0.483277 5.47402e-06 0)
(0.482078 5.23121e-06 0)
(0.480974 4.99349e-06 0)
(0.47996 4.75607e-06 0)
(0.479031 4.51373e-06 0)
(0.478183 4.26078e-06 0)
(0.477414 3.99094e-06 0)
(0.476724 3.69725e-06 0)
(0.476111 3.37199e-06 0)
(0.475578 3.00665e-06 0)
(0.475127 2.59184e-06 0)
(0.47476 2.11732e-06 0)
(0.474481 1.57189e-06 0)
(0.474297 9.43483e-07 0)
(0.474212 2.19181e-07 0)
(0.474233 -6.14909e-07 0)
(0.474368 -1.57312e-06 0)
(0.474624 -2.67066e-06 0)
(0.47501 -3.92402e-06 0)
(0.475534 -5.35062e-06 0)
(0.476208 -6.96796e-06 0)
(0.477039 -8.79501e-06 0)
(0.478038 -1.08508e-05 0)
(0.479216 -1.31571e-05 0)
(0.480582 -1.57347e-05 0)
(0.482148 -1.86106e-05 0)
(0.483924 -2.18076e-05 0)
(0.485922 -2.53638e-05 0)
(0.488154 -2.93029e-05 0)
(0.490631 -3.36878e-05 0)
(0.493371 -3.85387e-05 0)
(0.496381 -4.39697e-05 0)
(0.499692 -5.00018e-05 0)
(0.503308 -5.68033e-05 0)
(0.507274 -6.46608e-05 0)
(0.510907 -7.19608e-05 0)
(0.513925 -7.8085e-05 0)
(0.517026 -8.47559e-05 0)
(0.52024 -9.21878e-05 0)
(0.523558 -0.000100156 0)
(0.526989 -0.000108891 0)
(0.530537 -0.000118468 0)
(0.53421 -0.000129071 0)
(0.538017 -0.000140896 0)
(0.541975 -0.000154205 0)
(0.546099 -0.000169352 0)
(0.550415 -0.000186767 0)
(0.554951 -0.000207143 0)
(0.559749 -0.000231152 0)
(0.564855 -0.000260509 0)
(0.570362 -0.000295769 0)
(0.576312 -0.000342861 0)
(0.582987 -0.000398052 0)
(0.590251 -0.000489372 0)
(0.599274 -0.000580319 0)
(0.608638 -0.000837838 0)
(0.624499 -0.00107096 0)
(0.639407 -0.00274872 0)
(0.698027 -0.00748054 0)
(0.818445 -0.109545 0)
(2.00239 0.0969821 0)
(1.27641 0.00109826 0)
(1.00837 0.000401778 0)
(0.922443 0.000157784 0)
(0.874606 0.000105216 0)
(0.836876 8.51649e-05 0)
(0.807887 6.76398e-05 0)
(0.785804 5.49386e-05 0)
(0.76794 4.66518e-05 0)
(0.753129 4.03542e-05 0)
(0.74071 3.53586e-05 0)
(0.730143 3.14068e-05 0)
(0.721039 2.82104e-05 0)
(0.713121 2.55669e-05 0)
(0.706176 2.33513e-05 0)
(0.700041 2.14725e-05 0)
(0.694588 1.98613e-05 0)
(0.689714 1.84661e-05 0)
(0.685337 1.72476e-05 0)
(0.681389 1.61752e-05 0)
(0.677814 1.52248e-05 0)
(0.674567 1.43767e-05 0)
(0.671607 1.36151e-05 0)
(0.668903 1.29267e-05 0)
(0.666426 1.23e-05 0)
(0.664153 1.17252e-05 0)
(0.662063 1.11931e-05 0)
(0.66014 1.06955e-05 0)
(0.658368 1.0224e-05 0)
(0.656736 9.7706e-06 0)
(0.655234 9.32674e-06 0)
(0.653854 8.88346e-06 0)
(0.652589 8.43106e-06 0)
(0.651434 7.95892e-06 0)
(0.650388 7.4553e-06 0)
(0.649447 6.90724e-06 0)
(0.648613 6.30035e-06 0)
(0.647887 5.61874e-06 0)
(0.647272 4.84491e-06 0)
(0.646771 3.95974e-06 0)
(0.646392 2.94237e-06 0)
(0.646139 1.77029e-06 0)
(0.646022 4.19402e-07 0)
(0.646049 -1.13619e-06 0)
(0.646231 -2.92322e-06 0)
(0.646577 -4.97004e-06 0)
(0.6471 -7.30741e-06 0)
(0.647811 -9.96778e-06 0)
(0.648724 -1.29838e-05 0)
(0.649852 -1.63908e-05 0)
(0.651208 -2.02243e-05 0)
(0.652806 -2.45248e-05 0)
(0.65466 -2.93311e-05 0)
(0.656785 -3.46936e-05 0)
(0.659197 -4.06546e-05 0)
(0.661908 -4.72851e-05 0)
(0.664938 -5.46294e-05 0)
(0.6683 -6.28044e-05 0)
(0.67202 -7.18479e-05 0)
(0.676106 -8.19723e-05 0)
(0.680601 -9.32167e-05 0)
(0.685508 -0.000105894 0)
(0.690892 -0.000120536 0)
(0.695823 -0.000134141 0)
(0.699919 -0.000145559 0)
(0.704127 -0.000157989 0)
(0.708489 -0.000171833 0)
(0.712992 -0.000186679 0)
(0.717648 -0.00020295 0)
(0.722461 -0.000220788 0)
(0.727444 -0.000240536 0)
(0.73261 -0.000262558 0)
(0.737978 -0.000287341 0)
(0.743572 -0.000315542 0)
(0.749425 -0.000347961 0)
(0.755575 -0.000385889 0)
(0.762081 -0.000430578 0)
(0.769002 -0.000485201 0)
(0.776466 -0.000550851 0)
(0.78453 -0.000638404 0)
(0.793571 -0.000741375 0)
(0.803422 -0.000910842 0)
(0.815624 -0.0010823 0)
(0.828384 -0.00155896 0)
(0.849759 -0.00200969 0)
(0.870456 -0.00505036 0)
(0.947334 -0.0133816 0)
(1.09876 -0.145444 0)
(2.63348 0.127862 0)
(1.68495 0.00191464 0)
(1.33215 0.000703383 0)
(1.21852 0.000276827 0)
(1.15531 0.000184479 0)
(1.10551 0.000149273 0)
(1.06724 0.000118565 0)
(1.03809 9.63033e-05 0)
(1.0145 8.17737e-05 0)
(0.99495 7.07339e-05 0)
(0.978554 6.19772e-05 0)
(0.964605 5.505e-05 0)
(0.952588 4.94469e-05 0)
(0.942134 4.48131e-05 0)
(0.932967 4.09293e-05 0)
(0.924869 3.7636e-05 0)
(0.91767 3.48117e-05 0)
(0.911237 3.23661e-05 0)
(0.905459 3.02302e-05 0)
(0.900247 2.83505e-05 0)
(0.895529 2.66845e-05 0)
(0.891242 2.5198e-05 0)
(0.887336 2.38631e-05 0)
(0.883766 2.26564e-05 0)
(0.880497 2.1558e-05 0)
(0.877496 2.05505e-05 0)
(0.874738 1.9618e-05 0)
(0.872199 1.87458e-05 0)
(0.869861 1.79197e-05 0)
(0.867707 1.71251e-05 0)
(0.865724 1.63474e-05 0)
(0.863902 1.55709e-05 0)
(0.862232 1.47784e-05 0)
(0.860708 1.39515e-05 0)
(0.859326 1.30696e-05 0)
(0.858084 1.211e-05 0)
(0.856982 1.10476e-05 0)
(0.856023 9.85451e-06 0)
(0.85521 8.50015e-06 0)
(0.854548 6.95105e-06 0)
(0.854045 5.17075e-06 0)
(0.85371 3.11982e-06 0)
(0.853554 7.56161e-07 0)
(0.853587 -1.96557e-06 0)
(0.853823 -5.09211e-06 0)
(0.854277 -8.67307e-06 0)
(0.854963 -1.27622e-05 0)
(0.855897 -1.74164e-05 0)
(0.857097 -2.26925e-05 0)
(0.858579 -2.86526e-05 0)
(0.860362 -3.53585e-05 0)
(0.862463 -4.28813e-05 0)
(0.864903 -5.12886e-05 0)
(0.867698 -6.06684e-05 0)
(0.87087 -7.10949e-05 0)
(0.874436 -8.2692e-05 0)
(0.878423 -9.55373e-05 0)
(0.882845 -0.000109834 0)
(0.887738 -0.00012565 0)
(0.893114 -0.000143354 0)
(0.899026 -0.000163016 0)
(0.905483 -0.000185182 0)
(0.912564 -0.000210774 0)
(0.919049 -0.000234556 0)
(0.924436 -0.000254525 0)
(0.929971 -0.00027625 0)
(0.935708 -0.000300438 0)
(0.941629 -0.00032638 0)
(0.947751 -0.000354807 0)
(0.954079 -0.00038597 0)
(0.96063 -0.000420464 0)
(0.967421 -0.000458925 0)
(0.974476 -0.000502203 0)
(0.981828 -0.000551441 0)
(0.989519 -0.000608039 0)
(0.997599 -0.000674239 0)
(1.00614 -0.000752243 0)
(1.01523 -0.000847538 0)
(1.02503 -0.000962163 0)
(1.03562 -0.00111475 0)
(1.04748 -0.00129499 0)
(1.06042 -0.00158959 0)
(1.0764 -0.00189349 0)
(1.09325 -0.0027187 0)
(1.12111 -0.00353856 0)
(1.14893 -0.00866991 0)
(1.24588 -0.0222906 0)
(1.42749 -0.186344 0)
(3.38775 0.164975 0)
(2.1773 0.00319261 0)
(1.72302 0.00117878 0)
(1.57587 0.000465139 0)
(1.49411 0.00030973 0)
(1.42976 0.000250522 0)
(1.3803 0.000199001 0)
(1.34262 0.000161643 0)
(1.31214 0.000137248 0)
(1.28688 0.000118717 0)
(1.26569 0.000104019 0)
(1.24766 9.23921e-05 0)
(1.23213 8.29874e-05 0)
(1.21863 7.52097e-05 0)
(1.20678 6.86911e-05 0)
(1.19632 6.31635e-05 0)
(1.18701 5.84231e-05 0)
(1.1787 5.43183e-05 0)
(1.17124 5.07334e-05 0)
(1.1645 4.75786e-05 0)
(1.15841 4.47823e-05 0)
(1.15287 4.22875e-05 0)
(1.14782 4.0047e-05 0)
(1.14321 3.80219e-05 0)
(1.13898 3.61785e-05 0)
(1.13511 3.44877e-05 0)
(1.13154 3.29228e-05 0)
(1.12826 3.14593e-05 0)
(1.12524 3.0073e-05 0)
(1.12246 2.874e-05 0)
(1.1199 2.74354e-05 0)
(1.11754 2.61329e-05 0)
(1.11538 2.48039e-05 0)
(1.11341 2.34174e-05 0)
(1.11163 2.19391e-05 0)
(1.11002 2.03307e-05 0)
(1.1086 1.85503e-05 0)
(1.10736 1.65512e-05 0)
(1.1063 1.42822e-05 0)
(1.10545 1.16872e-05 0)
(1.1048 8.70522e-06 0)
(1.10436 5.2702e-06 0)
(1.10415 1.31162e-06 0)
(1.10419 -3.24638e-06 0)
(1.10449 -8.4821e-06 0)
(1.10507 -1.44786e-05 0)
(1.10595 -2.13258e-05 0)
(1.10715 -2.91188e-05 0)
(1.1087 -3.79532e-05 0)
(1.1106 -4.79323e-05 0)
(1.11289 -5.91599e-05 0)
(1.1156 -7.17549e-05 0)
(1.11873 -8.58303e-05 0)
(1.12233 -0.000101533 0)
(1.12641 -0.000118988 0)
(1.131 -0.000138401 0)
(1.13613 -0.000159904 0)
(1.14182 -0.000183834 0)
(1.14812 -0.000210305 0)
(1.15503 -0.000239933 0)
(1.16264 -0.000272838 0)
(1.17095 -0.000309927 0)
(1.18006 -0.000352732 0)
(1.1884 -0.000392518 0)
(1.19533 -0.000425941 0)
(1.20245 -0.000462275 0)
(1.20983 -0.000502713 0)
(1.21745 -0.000546091 0)
(1.22532 -0.000593612 0)
(1.23346 -0.000645704 0)
(1.24188 -0.000703352 0)
(1.25061 -0.000767621 0)
(1.25968 -0.000839927 0)
(1.26913 -0.000922175 0)
(1.27901 -0.0010167 0)
(1.28939 -0.00112724 0)
(1.30037 -0.00125748 0)
(1.31204 -0.0014165 0)
(1.32462 -0.00160796 0)
(1.33821 -0.00186224 0)
(1.35342 -0.0021642 0)
(1.37004 -0.00265353 0)
(1.39048 -0.00316997 0)
(1.41224 -0.00453269 0)
(1.44768 -0.00596084 0)
(1.48413 -0.0141758 0)
(1.60257 -0.0352177 0)
(1.81149 -0.232377 0)
(4.28695 0.20952 0)
(2.77021 0.00515338 0)
(2.19467 0.00191427 0)
(2.00696 0.000757737 0)
(1.9028 0.000504098 0)
(1.82093 0.000407538 0)
(1.75802 0.000323759 0)
(1.71006 0.00026299 0)
(1.67128 0.000223286 0)
(1.63913 0.000193134 0)
(1.61218 0.000169223 0)
(1.58924 0.000150305 0)
(1.56948 0.000135004 0)
(1.5523 0.00012235 0)
(1.53723 0.000111744 0)
(1.52391 0.000102751 0)
(1.51208 9.50388e-05 0)
(1.5015 8.83606e-05 0)
(1.49201 8.25284e-05 0)
(1.48344 7.73958e-05 0)
(1.47568 7.28467e-05 0)
(1.46864 6.8788e-05 0)
(1.46222 6.51432e-05 0)
(1.45635 6.18486e-05 0)
(1.45098 5.885e-05 0)
(1.44604 5.60995e-05 0)
(1.44151 5.35542e-05 0)
(1.43734 5.11737e-05 0)
(1.43349 4.89192e-05 0)
(1.42995 4.67516e-05 0)
(1.42669 4.46304e-05 0)
(1.4237 4.2513e-05 0)
(1.42095 4.03532e-05 0)
(1.41845 3.81003e-05 0)
(1.41617 3.56986e-05 0)
(1.41413 3.30863e-05 0)
(1.41232 3.01952e-05 0)
(1.41074 2.69495e-05 0)
(1.40939 2.32662e-05 0)
(1.4083 1.90544e-05 0)
(1.40747 1.42149e-05 0)
(1.40691 8.64067e-06 0)
(1.40664 2.21737e-06 0)
(1.40669 -5.17811e-06 0)
(1.40706 -1.36728e-05 0)
(1.40779 -2.34012e-05 0)
(1.4089 -3.45095e-05 0)
(1.41041 -4.71517e-05 0)
(1.41236 -6.14826e-05 0)
(1.41477 -7.767e-05 0)
(1.41767 -9.58821e-05 0)
(1.42109 -0.000116311 0)
(1.42506 -0.000139141 0)
(1.42961 -0.000164609 0)
(1.43478 -0.000192918 0)
(1.44059 -0.000224401 0)
(1.44708 -0.00025927 0)
(1.45428 -0.000298072 0)
(1.46225 -0.000340994 0)
(1.47101 -0.000389026 0)
(1.48064 -0.000442371 0)
(1.49115 -0.000502485 0)
(1.50268 -0.000571832 0)
(1.51324 -0.000636306 0)
(1.52201 -0.000690495 0)
(1.53102 -0.000749356 0)
(1.54035 -0.000814829 0)
(1.54999 -0.00088508 0)
(1.55995 -0.000962018 0)
(1.57024 -0.00104635 0)
(1.58089 -0.00113965 0)
(1.59193 -0.00124365 0)
(1.60339 -0.00136063 0)
(1.61533 -0.00149366 0)
(1.62782 -0.00164652 0)
(1.64093 -0.00182521 0)
(1.65479 -0.00203577 0)
(1.66953 -0.00229263 0)
(1.6854 -0.00260224 0)
(1.70255 -0.00301229 0)
(1.72171 -0.00350225 0)
(1.7427 -0.0042881 0)
(1.76838 -0.00513942 0)
(1.79601 -0.00731042 0)
(1.84019 -0.00971609 0)
(1.88694 -0.0223206 0)
(2.02761 -0.0533269 0)
(2.25847 -0.283448 0)
(5.35561 0.262891 0)
(3.4835 0.0081145 0)
(2.76345 0.00303631 0)
(2.5267 0.00120643 0)
(2.39551 0.000801704 0)
(2.29259 0.00064776 0)
(2.21347 0.00051466 0)
(2.15315 0.000418081 0)
(2.10438 0.000354935 0)
(2.06396 0.000306999 0)
(2.03006 0.000268988 0)
(2.00122 0.000238914 0)
(1.97637 0.000214588 0)
(1.95476 0.000194472 0)
(1.93581 0.000177613 0)
(1.91907 0.000163317 0)
(1.90419 0.000151057 0)
(1.8909 0.000140441 0)
(1.87896 0.00013117 0)
(1.86818 0.000123011 0)
(1.85843 0.00011578 0)
(1.84957 0.000109329 0)
(1.8415 0.000103535 0)
(1.83413 9.82984e-05 0)
(1.82737 9.35322e-05 0)
(1.82117 8.91607e-05 0)
(1.81547 8.51155e-05 0)
(1.81022 8.13327e-05 0)
(1.80539 7.77504e-05 0)
(1.80094 7.43067e-05 0)
(1.79684 7.09374e-05 0)
(1.79307 6.75748e-05 0)
(1.78962 6.41457e-05 0)
(1.78647 6.05697e-05 0)
(1.78361 5.67587e-05 0)
(1.78104 5.26146e-05 0)
(1.77876 4.80291e-05 0)
(1.77677 4.28826e-05 0)
(1.77508 3.70432e-05 0)
(1.7737 3.0367e-05 0)
(1.77265 2.26969e-05 0)
(1.77194 1.38634e-05 0)
(1.77159 3.68532e-06 0)
(1.77164 -8.03237e-06 0)
(1.7721 -2.14908e-05 0)
(1.773 -3.69031e-05 0)
(1.77438 -5.45006e-05 0)
(1.77627 -7.4527e-05 0)
(1.7787 -9.72277e-05 0)
(1.7817 -0.000122868 0)
(1.78532 -0.000151714 0)
(1.78959 -0.00018407 0)
(1.79455 -0.000220227 0)
(1.80024 -0.000260561 0)
(1.80669 -0.00030539 0)
(1.81395 -0.000355242 0)
(1.82206 -0.000410454 0)
(1.83106 -0.000471885 0)
(1.84102 -0.000539838 0)
(1.85196 -0.000615863 0)
(1.864 -0.000700297 0)
(1.87713 -0.000795421 0)
(1.89154 -0.000905097 0)
(1.90472 -0.0010071 0)
(1.91568 -0.00109287 0)
(1.92693 -0.00118596 0)
(1.93859 -0.00128943 0)
(1.95062 -0.00140048 0)
(1.96306 -0.00152207 0)
(1.9759 -0.0016553 0)
(1.98919 -0.00180269 0)
(2.00297 -0.00196692 0)
(2.01727 -0.0021516 0)
(2.03216 -0.00236157 0)
(2.04773 -0.00260277 0)
(2.06407 -0.0028846 0)
(2.08134 -0.00321669 0)
(2.0997 -0.00362141 0)
(2.11945 -0.00410988 0)
(2.14079 -0.00475459 0)
(2.16461 -0.00553045 0)
(2.19073 -0.00675972 0)
(2.22253 -0.00813073 0)
(2.25711 -0.0114901 0)
(2.31123 -0.0154284 0)
(2.36999 -0.0340646 0)
(2.53251 -0.0778559 0)
(2.77719 -0.339152 0)
(6.62089 0.326697 0)
(4.34061 0.0125278 0)
(3.44892 0.00472938 0)
(3.15285 0.00188769 0)
(2.98908 0.00125274 0)
(2.86086 0.00101147 0)
(2.76228 0.000803758 0)
(2.6871 0.000652968 0)
(2.62633 0.000554294 0)
(2.57596 0.00047942 0)
(2.53372 0.000420057 0)
(2.49778 0.000373085 0)
(2.46683 0.000335093 0)
(2.4399 0.000303676 0)
(2.41629 0.000277345 0)
(2.39544 0.000255018 0)
(2.3769 0.000235872 0)
(2.36033 0.000219293 0)
(2.34546 0.000204814 0)
(2.33204 0.000192073 0)
(2.31989 0.00018078 0)
(2.30885 0.000170705 0)
(2.2988 0.000161658 0)
(2.28961 0.000153481 0)
(2.28119 0.000146038 0)
(2.27347 0.000139213 0)
(2.26637 0.000132897 0)
(2.25983 0.000126992 0)
(2.25381 0.0001214 0)
(2.24827 0.000116026 0)
(2.24316 0.000110769 0)
(2.23847 0.000105523 0)
(2.23416 0.000100176 0)
(2.23024 9.46014e-05 0)
(2.22667 8.86622e-05 0)
(2.22347 8.22063e-05 0)
(2.22062 7.50648e-05 0)
(2.21814 6.70517e-05 0)
(2.21603 5.79619e-05 0)
(2.2143 4.75715e-05 0)
(2.21298 3.56363e-05 0)
(2.21209 2.18928e-05 0)
(2.21165 6.05895e-06 0)
(2.21169 -1.21682e-05 0)
(2.21225 -3.31015e-05 0)
(2.21335 -5.70724e-05 0)
(2.21505 -8.444e-05 0)
(2.21737 -0.000115583 0)
(2.22037 -0.000150884 0)
(2.22408 -0.000190753 0)
(2.22855 -0.000235606 0)
(2.23382 -0.000285913 0)
(2.23995 -0.000342127 0)
(2.24698 -0.00040483 0)
(2.25496 -0.000474518 0)
(2.26393 -0.000552005 0)
(2.27396 -0.00063782 0)
(2.28509 -0.000733286 0)
(2.29741 -0.000838883 0)
(2.31094 -0.000956994 0)
(2.32581 -0.00108817 0)
(2.34205 -0.0012359 0)
(2.35986 -0.00140613 0)
(2.37616 -0.0015645 0)
(2.38969 -0.00169776 0)
(2.40361 -0.00184223 0)
(2.41801 -0.00200267 0)
(2.43287 -0.00217493 0)
(2.44823 -0.00236344 0)
(2.46409 -0.00256998 0)
(2.4805 -0.00279837 0)
(2.4975 -0.00305279 0)
(2.51515 -0.0033388 0)
(2.53352 -0.00366384 0)
(2.55271 -0.00403711 0)
(2.57286 -0.004473 0)
(2.59413 -0.00498662 0)
(2.61673 -0.00561178 0)
(2.64103 -0.00636735 0)
(2.66729 -0.00736059 0)
(2.69653 -0.00856542 0)
(2.72865 -0.0104472 0)
(2.76751 -0.0126132 0)
(2.81022 -0.0176816 0)
(2.87544 -0.02396 0)
(2.94769 -0.0505738 0)
(3.13026 -0.10997 0)
(3.37792 -0.398686 0)
(8.11213 0.402767 0)
(5.36902 0.0190293 0)
(4.27429 0.00726137 0)
(3.9065 0.00291412 0)
(3.70348 0.00193083 0)
(3.54494 0.00155764 0)
(3.42302 0.00123798 0)
(3.33 0.00100581 0)
(3.25482 0.000853719 0)
(3.19252 0.000738372 0)
(3.14027 0.00064694 0)
(3.09583 0.000574585 0)
(3.05754 0.000516062 0)
(3.02424 0.000467669 0)
(2.99504 0.000427112 0)
(2.96925 0.000392722 0)
(2.94633 0.000363232 0)
(2.92584 0.000337695 0)
(2.90744 0.000315395 0)
(2.89085 0.000295771 0)
(2.87583 0.000278378 0)
(2.86218 0.000262861 0)
(2.84975 0.000248928 0)
(2.83839 0.000236334 0)
(2.82798 0.000224873 0)
(2.81843 0.000214363 0)
(2.80965 0.000204638 0)
(2.80157 0.000195547 0)
(2.79412 0.00018694 0)
(2.78727 0.000178669 0)
(2.78095 0.000170581 0)
(2.77515 0.000162514 0)
(2.76983 0.000154292 0)
(2.76497 0.000145725 0)
(2.76056 0.000136601 0)
(2.75659 0.000126687 0)
(2.75307 0.000115724 0)
(2.74999 0.000103427 0)
(2.74737 8.94821e-05 0)
(2.74523 7.35455e-05 0)
(2.74358 5.52434e-05 0)
(2.74246 3.41716e-05 0)
(2.7419 9.8985e-06 0)
(2.74193 -1.80404e-05 0)
(2.74259 -5.01242e-05 0)
(2.74393 -8.68607e-05 0)
(2.74599 -0.0001288 0)
(2.74883 -0.000176522 0)
(2.75249 -0.00023061 0)
(2.75702 -0.000291695 0)
(2.76249 -0.000360411 0)
(2.76895 -0.000437478 0)
(2.77645 -0.000523589 0)
(2.78506 -0.000619631 0)
(2.79483 -0.000726365 0)
(2.80582 -0.000845031 0)
(2.81811 -0.000976439 0)
(2.83175 -0.0011226 0)
(2.84684 -0.00128426 0)
(2.86342 -0.00146503 0)
(2.88164 -0.00166578 0)
(2.90154 -0.00189178 0)
(2.92335 -0.00215201 0)
(2.9433 -0.00239422 0)
(2.95988 -0.00259817 0)
(2.97692 -0.00281897 0)
(2.99455 -0.00306395 0)
(3.01274 -0.00332707 0)
(3.03153 -0.00361487 0)
(3.05094 -0.00393011 0)
(3.07101 -0.00427856 0)
(3.09179 -0.00466657 0)
(3.11335 -0.00510256 0)
(3.13579 -0.00559778 0)
(3.15923 -0.00616628 0)
(3.18381 -0.00682966 0)
(3.20975 -0.00761121 0)
(3.2373 -0.00856105 0)
(3.26689 -0.00971068 0)
(3.29884 -0.0112147 0)
(3.33434 -0.013055 0)
(3.37341 -0.015882 0)
(3.42031 -0.0192459 0)
(3.47237 -0.0267149 0)
(3.54961 -0.036459 0)
(3.63635 -0.0731694 0)
(3.83534 -0.150545 0)
(4.07318 -0.460768 0)
(9.85994 0.493137 0)
(6.60074 0.0285029 0)
(5.26704 0.0110193 0)
(4.8126 0.00445118 0)
(4.56236 0.00294366 0)
(4.36753 0.00237224 0)
(4.21767 0.00188582 0)