/*--------------------------------*- C++ -*----------------------------------*\
| =========                 |                                                 |
| \\      /  F ield         | OpenFOAM: The Open Source CFD Toolbox           |
|  \\    /   O peration     | Version:  2506                                  |
|   \\  /    A nd           | Website:  www.openfoam.com                      |
|    \\/     M anipulation  |                                                 |
\*---------------------------------------------------------------------------*/
FoamFile
{
    version     2.0;
    format      ascii;
    arch        "LSB;label=32;scalar=64";
    class       volVectorField;
    location    "2000";
    object      U;
}
// * * * * * * * * * * * * * * * * * * * * * * * * * * * * * * * * * * * * * //

dimensions      [0 1 -1 0 0 0 0];

internalField   nonuniform List<vector> 
20540
(
(0.677155 1.99016e-05 0)
(0.715697 8.19347e-05 0)
(0.677568 6.38161e-05 0)
(0.716338 0.000262589 0)
(0.678109 0.000116822 0)
(0.717178 0.000480457 0)
(0.678809 0.000180749 0)
(0.718265 0.000743034 0)
(0.679702 0.000257783 0)
(0.719654 0.00105929 0)
(0.680829 0.000350517 0)
(0.721407 0.0014399 0)
(0.682236 0.000462004 0)
(0.723599 0.00189748 0)
(0.68398 0.000595824 0)
(0.726318 0.00244693 0)
(0.686125 0.000756145 0)
(0.729667 0.0031057 0)
(0.688747 0.000947762 0)
(0.733767 0.00389412 0)
(0.691935 0.00117613 0)
(0.73876 0.00483557 0)
(0.695792 0.00144734 0)
(0.74481 0.0059567 0)
(0.700435 0.00176806 0)
(0.752108 0.00728732 0)
(0.705995 0.00214529 0)
(0.760865 0.00886002 0)
(0.712618 0.00258608 0)
(0.77132 0.0107093 0)
(0.720464 0.00309692 0)
(0.78373 0.01287 0)
(0.729697 0.00368284 0)
(0.798361 0.0153744 0)
(0.740483 0.0043461 0)
(0.815475 0.0182477 0)
(0.752979 0.00508431 0)
(0.8353 0.0215017 0)
(0.767313 0.00588789 0)
(0.857998 0.025125 0)
(0.783569 0.00673688 0)
(0.8836 0.0290696 0)
(0.80176 0.00759713 0)
(0.911939 0.0332336 0)
(0.821803 0.00841639 0)
(0.942555 0.0374388 0)
(0.843497 0.0091211 0)
(0.974605 0.0414065 0)
(0.866503 0.00961546 0)
(1.00679 0.0447334 0)
(0.890349 0.00978472 0)
(1.03735 0.0468789 0)
(0.914434 0.00950475 0)
(1.06429 0.0471752 0)
(0.938027 0.00865948 0)
(1.08573 0.0448825 0)
(0.96021 0.00716711 0)
(1.10061 0.0393095 0)
(0.979694 0.00499727 0)
(1.10925 0.0300042 0)
(0.992774 0.00242023 0)
(1.11276 0.0184058 0)
(0.999089 -0.000243489 0)
(1.11359 0.006488 0)
(0.99925 -0.00293616 0)
(1.11262 -0.00553057 0)
(0.993184 -0.00555238 0)
(1.10958 -0.0173422 0)
(0.980311 -0.00798913 0)
(1.10313 -0.0285573 0)
(0.961125 -0.00993632 0)
(1.09115 -0.0374271 0)
(0.938864 -0.0111931 0)
(1.07323 -0.042852 0)
(0.914807 -0.011808 0)
(1.04936 -0.0452509 0)
(0.88993 -0.0118735 0)
(1.02061 -0.0452355 0)
(0.865038 -0.0115079 0)
(0.9887 -0.0434613 0)
(0.840804 -0.0108339 0)
(0.955452 -0.0405278 0)
(0.817761 -0.00996356 0)
(0.922463 -0.0369296 0)
(0.796297 -0.00899034 0)
(0.890938 -0.0330439 0)
(0.776658 -0.0079863 0)
(0.861673 -0.029139 0)
(0.758966 -0.00700299 0)
(0.835117 -0.0253921 0)
(0.743237 -0.00607437 0)
(0.811443 -0.0219107 0)
(0.729412 -0.00522049 0)
(0.790635 -0.0187505 0)
(0.717379 -0.00445102 0)
(0.772554 -0.015932 0)
(0.706993 -0.00376835 0)
(0.756986 -0.013452 0)
(0.698093 -0.00317008 0)
(0.743686 -0.0112927 0)
(0.690515 -0.00265087 0)
(0.732396 -0.0094283 0)
(0.6841 -0.00220379 0)
(0.722865 -0.00782934 0)
(0.678698 -0.00182125 0)
(0.71486 -0.00646537 0)
(0.674169 -0.00149561 0)
(0.708168 -0.00530694 0)
(0.670391 -0.00121958 0)
(0.702597 -0.00432658 0)
(0.667254 -0.000986395 0)
(0.697981 -0.00349933 0)
(0.664661 -0.000789968 0)
(0.694173 -0.00280293 0)
(0.66253 -0.000624889 0)
(0.691048 -0.00221785 0)
(0.660789 -0.000486421 0)
(0.688498 -0.00172707 0)
(0.659376 -0.00037046 0)
(0.686431 -0.00131596 0)
(0.658239 -0.000273475 0)
(0.68477 -0.000971955 0)
(0.657334 -0.000192449 0)
(0.683448 -0.000684366 0)
(0.656621 -0.000124817 0)
(0.682408 -0.000444119 0)
(0.656068 -6.84028e-05 0)
(0.681602 -0.000243535 0)
(0.655645 -2.13804e-05 0)
(0.680986 -7.61687e-05 0)
(0.00114806 8.39588e-05 0)
(0.000953321 1.22672e-08 0)
(0.000816641 4.98197e-09 0)
(0.00081856 8.55328e-10 0)
(0.000795838 1.09132e-09 0)
(0.000791439 4.16201e-10 0)
(0.000786112 3.33804e-10 0)
(0.000783804 1.8335e-10 0)
(0.000782103 1.25771e-10 0)
(0.000781143 7.85508e-11 0)
(0.000780505 5.27773e-11 0)
(0.000780108 3.48988e-11 0)
(0.000779846 2.3778e-11 0)
(0.000779675 1.62967e-11 0)
(0.00077956 1.13647e-11 0)
(0.000779483 8.01354e-12 0)
(0.00077943 5.72734e-12 0)
(0.000779393 4.14092e-12 0)
(0.000779367 3.02877e-12 0)
(0.000779349 2.2381e-12 0)
(0.000779336 1.66815e-12 0)
(0.000779326 1.2499e-12 0)
(0.00077932 9.35111e-13 0)
(0.000779315 6.88608e-13 0)
(0.000779311 4.82891e-13 0)
(0.000779309 2.94164e-13 0)
(0.000779308 9.92609e-14 0)
(0.000779308 -1.2742e-13 0)
(0.000779309 -4.16882e-13 0)
(0.000779312 -8.08561e-13 0)
(0.000779317 -1.35394e-12 0)
(0.000779325 -2.12075e-12 0)
(0.000779336 -3.19789e-12 0)
(0.000779353 -4.70083e-12 0)
(0.000779375 -6.7782e-12 0)
(0.000779407 -9.61876e-12 0)
(0.00077945 -1.34594e-11 0)
(0.000779507 -1.85936e-11 0)
(0.000779583 -2.53805e-11 0)
(0.000779683 -3.42542e-11 0)
(0.000779812 -4.57335e-11 0)
(0.000779976 -6.04313e-11 0)
(0.000780186 -7.90636e-11 0)
(0.000780448 -1.02459e-10 0)
(0.000780774 -1.31567e-10 0)
(0.000781176 -1.67465e-10 0)
(0.000781668 -2.1137e-10 0)
(0.000782263 -2.64642e-10 0)
(0.000782979 -3.28798e-10 0)
(0.000783833 -4.05521e-10 0)
(0.000784844 -4.96678e-10 0)
(0.000786035 -6.04345e-10 0)
(0.000787426 -7.3083e-10 0)
(0.000789043 -8.78734e-10 0)
(0.000790911 -1.051e-09 0)
(0.000793059 -1.25102e-09 0)
(0.000795518 -1.48277e-09 0)
(0.00079832 -1.75096e-09 0)
(0.000801504 -2.06141e-09 0)
(0.000805111 -2.42096e-09 0)
(0.000809188 -2.83971e-09 0)
(0.000813796 -3.32679e-09 0)
(0.000818992 -3.90534e-09 0)
(0.000823915 -4.47533e-09 0)
(0.000828108 -4.97368e-09 0)
(0.000832521 -5.52622e-09 0)
(0.000837198 -6.14663e-09 0)
(0.000842139 -6.83215e-09 0)
(0.000847365 -7.59966e-09 0)
(0.000852893 -8.45992e-09 0)
(0.000858751 -9.43073e-09 0)
(0.000864965 -1.05321e-08 0)
(0.000871571 -1.17897e-08 0)
(0.000878614 -1.32359e-08 0)
(0.000886145 -1.49126e-08 0)
(0.000894231 -1.68775e-08 0)
(0.000902957 -1.92119e-08 0)
(0.000912436 -2.20462e-08 0)
(0.000922833 -2.55834e-08 0)
(0.000934384 -3.02119e-08 0)
(0.000947509 -3.65766e-08 0)
(0.000962827 -4.61395e-08 0)
(0.000981715 -6.15373e-08 0)
(0.00100626 -9.00744e-08 0)
(0.00104247 -1.50041e-07 0)
(0.00110241 -3.39802e-07 0)
(0.00124915 -1.30523e-06 0)
(0.00181016 -0.00029123 0)
(0.00368148 0.000269155 0)
(0.0030583 1.93059e-07 0)
(0.00262029 7.97972e-08 0)
(0.00262632 1.34409e-08 0)
(0.00255349 1.74354e-08 0)
(0.00253937 6.60387e-09 0)
(0.00252229 5.32014e-09 0)
(0.00251489 2.91563e-09 0)
(0.00250943 2.00252e-09 0)
(0.00250635 1.2498e-09 0)
(0.00250431 8.40011e-10 0)
(0.00250303 5.55333e-10 0)
(0.00250219 3.78395e-10 0)
(0.00250164 2.59316e-10 0)
(0.00250128 1.80832e-10 0)
(0.00250103 1.27499e-10 0)
(0.00250086 9.11164e-11 0)
(0.00250074 6.58705e-11 0)
(0.00250066 4.81718e-11 0)
(0.0025006 3.55888e-11 0)
(0.00250056 2.65187e-11 0)
(0.00250053 1.98618e-11 0)
(0.00250051 1.48512e-11 0)
(0.00250049 1.09262e-11 0)
(0.00250048 7.64891e-12 0)
(0.00250047 4.64076e-12 0)
(0.00250047 1.53171e-12 0)
(0.00250047 -2.08707e-12 0)
(0.00250047 -6.71066e-12 0)
(0.00250048 -1.29691e-11 0)
(0.0025005 -2.16851e-11 0)
(0.00250052 -3.39417e-11 0)
(0.00250056 -5.11591e-11 0)
(0.00250061 -7.51842e-11 0)
(0.00250068 -1.08392e-10 0)
(0.00250078 -1.538e-10 0)
(0.00250092 -2.15196e-10 0)
(0.00250111 -2.9727e-10 0)
(0.00250135 -4.05763e-10 0)
(0.00250167 -5.47615e-10 0)
(0.00250208 -7.31118e-10 0)
(0.00250261 -9.66069e-10 0)
(0.00250328 -1.26392e-09 0)
(0.00250412 -1.6379e-09 0)
(0.00250517 -2.1032e-09 0)
(0.00250646 -2.67704e-09 0)
(0.00250803 -3.37886e-09 0)
(0.00250994 -4.23042e-09 0)
(0.00251223 -5.25594e-09 0)
(0.00251497 -6.48234e-09 0)
(0.00251821 -7.93945e-09 0)
(0.00252203 -9.66044e-09 0)
(0.00252649 -1.16822e-08 0)
(0.00253167 -1.40463e-08 0)
(0.00253766 -1.67997e-08 0)
(0.00254455 -1.99968e-08 0)
(0.00255243 -2.37008e-08 0)
(0.00256141 -2.79871e-08 0)
(0.00257162 -3.29488e-08 0)
(0.00258318 -3.86947e-08 0)
(0.00259625 -4.5387e-08 0)
(0.00261102 -5.31693e-08 0)
(0.00262767 -6.24177e-08 0)
(0.00264345 -7.14997e-08 0)
(0.00265689 -7.94994e-08 0)
(0.00267103 -8.83068e-08 0)
(0.00268603 -9.82278e-08 0)
(0.00270186 -1.09176e-07 0)
(0.00271861 -1.21439e-07 0)
(0.00273633 -1.35182e-07 0)
(0.0027551 -1.50693e-07 0)
(0.00277502 -1.68291e-07 0)
(0.00279619 -1.88389e-07 0)
(0.00281877 -2.11506e-07 0)
(0.00284291 -2.38321e-07 0)
(0.00286882 -2.6977e-07 0)
(0.00289679 -3.07172e-07 0)
(0.00292718 -3.52667e-07 0)
(0.00296052 -4.09554e-07 0)
(0.00299757 -4.84274e-07 0)
(0.0030397 -5.87204e-07 0)
(0.0030889 -7.42903e-07 0)
(0.00314961 -9.93198e-07 0)
(0.00322866 -1.46224e-06 0)
(0.00334541 -2.44186e-06 0)
(0.00353938 -5.47734e-06 0)
(0.00400376 -1.9691e-05 0)
(0.00572744 -0.000920927 0)
(0.00674123 0.000492735 0)
(0.00560245 6.78679e-07 0)
(0.0048009 2.81108e-07 0)
(0.0048117 4.73224e-08 0)
(0.0046784 6.14097e-08 0)
(0.00465252 2.32558e-08 0)
(0.00462125 1.87363e-08 0)
(0.00460769 1.02676e-08 0)
(0.0045977 7.05222e-09 0)
(0.00459206 4.40133e-09 0)
(0.00458832 2.95822e-09 0)
(0.00458598 1.95568e-09 0)
(0.00458445 1.33257e-09 0)
(0.00458344 9.13219e-10 0)
(0.00458277 6.36828e-10 0)
(0.00458231 4.49006e-10 0)
(0.004582 3.20879e-10 0)
(0.00458179 2.31971e-10 0)
(0.00458163 1.69642e-10 0)
(0.00458153 1.25328e-10 0)
(0.00458145 9.33866e-11 0)
(0.0045814 6.99431e-11 0)
(0.00458136 5.22975e-11 0)
(0.00458133 3.84754e-11 0)
(0.00458131 2.69352e-11 0)
(0.00458129 1.63437e-11 0)
(0.00458129 5.3983e-12 0)
(0.00458129 -7.34035e-12 0)
(0.0045813 -2.36142e-11 0)
(0.00458131 -4.56411e-11 0)
(0.00458134 -7.63166e-11 0)
(0.00458139 -1.19452e-10 0)
(0.00458145 -1.80045e-10 0)
(0.00458155 -2.64596e-10 0)
(0.00458168 -3.81464e-10 0)
(0.00458187 -5.41267e-10 0)
(0.00458212 -7.57333e-10 0)
(0.00458246 -1.04617e-09 0)
(0.0045829 -1.42799e-09 0)
(0.00458349 -1.9272e-09 0)
(0.00458424 -2.57299e-09 0)
(0.00458521 -3.39984e-09 0)
(0.00458644 -4.44803e-09 0)
(0.00458798 -5.76417e-09 0)
(0.00458989 -7.40165e-09 0)
(0.00459225 -9.42114e-09 0)
(0.00459513 -1.1891e-08 0)
(0.00459863 -1.48878e-08 0)
(0.00460283 -1.84968e-08 0)
(0.00460784 -2.28127e-08 0)
(0.00461377 -2.79406e-08 0)
(0.00462075 -3.39971e-08 0)
(0.00462892 -4.1112e-08 0)
(0.0046384 -4.94316e-08 0)
(0.00464936 -5.91212e-08 0)
(0.00466197 -7.03719e-08 0)
(0.00467639 -8.34067e-08 0)
(0.00469284 -9.84901e-08 0)
(0.00471151 -1.1595e-07 0)
(0.00473268 -1.3617e-07 0)
(0.0047566 -1.59719e-07 0)
(0.00478363 -1.87104e-07 0)
(0.00481411 -2.19648e-07 0)
(0.00484299 -2.51595e-07 0)
(0.00486759 -2.79758e-07 0)
(0.00489348 -3.10743e-07 0)
(0.00492092 -3.45652e-07 0)
(0.0049499 -3.84171e-07 0)
(0.00498055 -4.27322e-07 0)
(0.00501298 -4.75677e-07 0)
(0.00504734 -5.30254e-07 0)
(0.00508379 -5.92175e-07 0)
(0.00512254 -6.62898e-07 0)
(0.00516385 -7.44255e-07 0)
(0.00520803 -8.38638e-07 0)
(0.00525547 -9.49357e-07 0)
(0.00530667 -1.08109e-06 0)
(0.0053623 -1.24141e-06 0)
(0.00542334 -1.44203e-06 0)
(0.00549121 -1.7058e-06 0)
(0.0055684 -2.06958e-06 0)
(0.00565863 -2.62052e-06 0)
(0.00577008 -3.50733e-06 0)
(0.00591541 -5.17131e-06 0)
(0.00613028 -8.65317e-06 0)
(0.0064884 -1.92418e-05 0)
(0.00733242 -6.73586e-05 0)
(0.0103636 -0.00167723 0)
(0.0104355 0.000762505 0)
(0.00867685 1.66678e-06 0)
(0.00743691 6.91393e-07 0)
(0.0074532 1.16444e-07 0)
(0.00724698 1.51034e-07 0)
(0.00720685 5.72068e-08 0)
(0.00715845 4.60817e-08 0)
(0.00713746 2.52547e-08 0)
(0.00712199 1.73453e-08 0)
(0.00711327 1.08255e-08 0)
(0.00710747 7.27594e-09 0)
(0.00710386 4.81016e-09 0)
(0.00710148 3.27756e-09 0)
(0.00709992 2.24614e-09 0)
(0.00709888 1.56633e-09 0)
(0.00709818 1.10437e-09 0)
(0.00709769 7.89229e-10 0)
(0.00709736 5.70551e-10 0)
(0.00709713 4.17247e-10 0)
(0.00709696 3.08253e-10 0)
(0.00709684 2.29689e-10 0)
(0.00709675 1.72027e-10 0)
(0.00709669 1.28627e-10 0)
(0.00709665 9.46308e-11 0)
(0.00709662 6.62481e-11 0)
(0.0070966 4.02002e-11 0)
(0.00709659 1.32838e-11 0)
(0.00709659 -1.80404e-11 0)
(0.0070966 -5.80558e-11 0)
(0.00709663 -1.12215e-10 0)
(0.00709667 -1.87638e-10 0)
(0.00709674 -2.93694e-10 0)
(0.00709684 -4.42674e-10 0)
(0.00709699 -6.50557e-10 0)
(0.0070972 -9.37895e-10 0)
(0.00709748 -1.3308e-09 0)
(0.00709787 -1.86203e-09 0)
(0.0070984 -2.57219e-09 0)
(0.00709909 -3.51094e-09 0)
(0.00709999 -4.73833e-09 0)
(0.00710116 -6.32611e-09 0)
(0.00710266 -8.35904e-09 0)
(0.00710455 -1.09362e-08 0)
(0.00710694 -1.41721e-08 0)
(0.0071099 -1.81981e-08 0)
(0.00711355 -2.31633e-08 0)
(0.00711801 -2.92358e-08 0)
(0.00712342 -3.66039e-08 0)
(0.00712991 -4.54771e-08 0)
(0.00713767 -5.60884e-08 0)
(0.00714685 -6.86958e-08 0)
(0.00715765 -8.35863e-08 0)
(0.00717028 -1.01079e-07 0)
(0.00718496 -1.21534e-07 0)
(0.00720192 -1.45356e-07 0)
(0.00722142 -1.73017e-07 0)
(0.00724374 -2.05063e-07 0)
(0.00726918 -2.42146e-07 0)
(0.00729808 -2.85072e-07 0)
(0.00733082 -3.34782e-07 0)
(0.00736784 -3.92676e-07 0)
(0.00740966 -4.59999e-07 0)
(0.00745682 -5.40002e-07 0)
(0.0075015 -6.18525e-07 0)
(0.00753955 -6.87777e-07 0)
(0.00757961 -7.63943e-07 0)
(0.00762206 -8.49755e-07 0)
(0.00766689 -9.44444e-07 0)
(0.00771431 -1.05052e-06 0)
(0.00776448 -1.16938e-06 0)
(0.00781763 -1.30355e-06 0)
(0.00787402 -1.45577e-06 0)
(0.00793397 -1.62964e-06 0)
(0.00799788 -1.82966e-06 0)
(0.00806623 -2.06175e-06 0)
(0.00813962 -2.33407e-06 0)
(0.00821884 -2.65817e-06 0)
(0.00830492 -3.05282e-06 0)
(0.00839942 -3.54702e-06 0)
(0.00850451 -4.19733e-06 0)
(0.0086241 -5.09521e-06 0)
(0.00876403 -6.45624e-06 0)
(0.00893702 -8.65009e-06 0)
(0.00916301 -1.27691e-05 0)
(0.00949748 -2.14032e-05 0)
(0.0100565 -4.72418e-05 0)
(0.011352 -0.000161201 0)
(0.0158281 -0.00258148 0)
(0.0148939 0.00108788 0)
(0.0123912 3.43571e-06 0)
(0.010623 1.42701e-06 0)
(0.0106455 2.4062e-07 0)
(0.0103513 3.11741e-07 0)
(0.010294 1.1813e-07 0)
(0.0102249 9.51245e-08 0)
(0.0101949 5.21398e-08 0)
(0.0101729 3.5807e-08 0)
(0.0101604 2.23487e-08 0)
(0.0101521 1.50205e-08 0)
(0.010147 9.93029e-09 0)
(0.0101436 6.76631e-09 0)
(0.0101414 4.63702e-09 0)
(0.0101399 3.2336e-09 0)
(0.0101389 2.27991e-09 0)
(0.0101382 1.62933e-09 0)
(0.0101377 1.17788e-09 0)
(0.0101374 8.61389e-10 0)
(0.0101371 6.36376e-10 0)
(0.010137 4.74185e-10 0)
(0.0101368 3.55145e-10 0)
(0.0101367 2.65547e-10 0)
(0.0101367 1.95367e-10 0)
(0.0101366 1.36776e-10 0)
(0.0101366 8.30088e-11 0)
(0.0101366 2.74533e-11 0)
(0.0101366 -3.71949e-11 0)
(0.0101366 -1.19776e-10 0)
(0.0101367 -2.3154e-10 0)
(0.0101367 -3.87182e-10 0)
(0.0101368 -6.06036e-10 0)
(0.010137 -9.13462e-10 0)
(0.0101372 -1.34244e-09 0)
(0.0101375 -1.93537e-09 0)
(0.0101379 -2.74613e-09 0)
(0.0101384 -3.84235e-09 0)
(0.0101392 -5.30777e-09 0)
(0.0101402 -7.24489e-09 0)
(0.0101415 -9.77764e-09 0)
(0.0101431 -1.30541e-08 0)
(0.0101453 -1.7249e-08 0)
(0.010148 -2.2567e-08 0)
(0.0101514 -2.92444e-08 0)
(0.0101556 -3.75521e-08 0)
(0.0101608 -4.77978e-08 0)
(0.0101672 -6.03285e-08 0)
(0.0101749 -7.55324e-08 0)
(0.0101841 -9.38424e-08 0)
(0.0101952 -1.15739e-07 0)
(0.0102083 -1.41754e-07 0)
(0.0102237 -1.7248e-07 0)
(0.0102417 -2.08576e-07 0)
(0.0102627 -2.50783e-07 0)
(0.0102868 -2.9994e-07 0)
(0.0103147 -3.57016e-07 0)
(0.0103465 -4.23141e-07 0)
(0.0103828 -4.99658e-07 0)
(0.010424 -5.88229e-07 0)
(0.0104707 -6.90797e-07 0)
(0.0105235 -8.1025e-07 0)
(0.0105832 -9.49158e-07 0)
(0.0106504 -1.11422e-06 0)
(0.0107141 -1.27621e-06 0)
(0.0107684 -1.41912e-06 0)
(0.0108255 -1.57626e-06 0)
(0.0108861 -1.75329e-06 0)
(0.01095 -1.94864e-06 0)
(0.0110177 -2.16748e-06 0)
(0.0110892 -2.41272e-06 0)
(0.011165 -2.68951e-06 0)
(0.0112454 -3.00357e-06 0)
(0.0113309 -3.3623e-06 0)
(0.0114221 -3.77505e-06 0)
(0.0115195 -4.25403e-06 0)
(0.0116242 -4.81618e-06 0)
(0.0117372 -5.4855e-06 0)
(0.01186 -6.30093e-06 0)
(0.0119949 -7.3229e-06 0)
(0.0121449 -8.66887e-06 0)
(0.0123158 -1.05297e-05 0)
(0.0125159 -1.33526e-05 0)
(0.0127635 -1.79104e-05 0)
(0.0130877 -2.64698e-05 0)
(0.013568 -4.44395e-05 0)
(0.0143724 -9.72733e-05 0)
(0.016201 -0.000322548 0)
(0.0222388 -0.00365803 0)
(0.0202721 0.00148013 0)
(0.0168774 6.40615e-06 0)
(0.0144731 2.66426e-06 0)
(0.0145025 4.50048e-07 0)
(0.0141025 5.82085e-07 0)
(0.0140242 2.20721e-07 0)
(0.0139303 1.77647e-07 0)
(0.0138895 9.73931e-08 0)
(0.0138594 6.6876e-08 0)
(0.0138425 4.1743e-08 0)
(0.0138312 2.80544e-08 0)
(0.0138242 1.85476e-08 0)
(0.0138196 1.26379e-08 0)
(0.0138165 8.66093e-09 0)
(0.0138145 6.03966e-09 0)
(0.0138131 4.25839e-09 0)
(0.0138122 3.04325e-09 0)
(0.0138116 2.20004e-09 0)
(0.0138111 1.60891e-09 0)
(0.0138108 1.18863e-09 0)
(0.0138106 8.85695e-10 0)
(0.0138104 6.63354e-10 0)
(0.0138103 4.96008e-10 0)
(0.0138102 3.64932e-10 0)
(0.0138101 2.55507e-10 0)
(0.0138101 1.55099e-10 0)
(0.0138101 5.13611e-11 0)
(0.0138101 -6.93443e-11 0)
(0.0138101 -2.2352e-10 0)
(0.0138101 -4.32172e-10 0)
(0.0138102 -7.22729e-10 0)
(0.0138104 -1.13129e-09 0)
(0.0138106 -1.70518e-09 0)
(0.0138108 -2.50598e-09 0)
(0.0138112 -3.61284e-09 0)
(0.0138118 -5.12636e-09 0)
(0.0138126 -7.17272e-09 0)
(0.0138136 -9.90831e-09 0)
(0.0138149 -1.35245e-08 0)
(0.0138167 -1.82525e-08 0)
(0.0138189 -2.43688e-08 0)
(0.0138218 -3.21998e-08 0)
(0.0138255 -4.21271e-08 0)
(0.0138301 -5.45921e-08 0)
(0.0138359 -7.01004e-08 0)
(0.013843 -8.92266e-08 0)
(0.0138516 -1.12618e-07 0)
(0.0138621 -1.41e-07 0)
(0.0138747 -1.7518e-07 0)
(0.0138898 -2.16054e-07 0)
(0.0139076 -2.64618e-07 0)
(0.0139285 -3.21975e-07 0)
(0.013953 -3.89355e-07 0)
(0.0139815 -4.68143e-07 0)
(0.0140144 -5.59903e-07 0)
(0.0140523 -6.66444e-07 0)
(0.0140956 -7.89877e-07 0)
(0.0141449 -9.32704e-07 0)
(0.014201 -1.09803e-06 0)
(0.0142645 -1.28948e-06 0)
(0.0143363 -1.51244e-06 0)
(0.0144174 -1.77172e-06 0)
(0.0145089 -2.07979e-06 0)
(0.0145955 -2.38209e-06 0)
(0.0146694 -2.64886e-06 0)
(0.014747 -2.94215e-06 0)
(0.0148294 -3.27253e-06 0)
(0.0149163 -3.63713e-06 0)
(0.0150083 -4.04553e-06 0)
(0.0151056 -4.50321e-06 0)
(0.0152087 -5.01979e-06 0)
(0.015318 -5.60594e-06 0)
(0.0154343 -6.27551e-06 0)
(0.0155582 -7.04599e-06 0)
(0.0156907 -7.94025e-06 0)
(0.0158331 -8.99009e-06 0)
(0.0159868 -1.02407e-05 0)
(0.0161539 -1.17652e-05 0)
(0.0163373 -1.36777e-05 0)
(0.0165416 -1.61989e-05 0)
(0.0167744 -1.96898e-05 0)
(0.0170474 -2.49901e-05 0)
(0.0173857 -3.35636e-05 0)
(0.0178294 -4.96614e-05 0)
(0.0184873 -8.34915e-05 0)
(0.0195904 -0.000180952 0)
(0.0220427 -0.000580553 0)
(0.0297213 -0.00493445 0)
(0.0267557 0.0019527 0)
(0.0222941 1.1206e-05 0)
(0.0191246 4.66716e-06 0)
(0.0191616 7.90264e-07 0)
(0.0186341 1.01983e-06 0)
(0.0185306 3.87053e-07 0)
(0.0184066 3.11313e-07 0)
(0.0183527 1.70724e-07 0)
(0.0183131 1.17209e-07 0)
(0.0182907 7.31663e-08 0)
(0.0182758 4.9171e-08 0)
(0.0182666 3.25093e-08 0)
(0.0182605 2.21508e-08 0)
(0.0182565 1.51805e-08 0)
(0.0182538 1.0586e-08 0)
(0.018252 7.46397e-09 0)
(0.0182508 5.33412e-09 0)
(0.0182499 3.8562e-09 0)
(0.0182493 2.82009e-09 0)
(0.0182489 2.08345e-09 0)
(0.0182486 1.55247e-09 0)
(0.0182483 1.16276e-09 0)
(0.0182482 8.69449e-10 0)
(0.0182481 6.39716e-10 0)
(0.018248 4.47943e-10 0)
(0.0182479 2.71989e-10 0)
(0.0182479 9.02207e-11 0)
(0.0182479 -1.21254e-10 0)
(0.018248 -3.91345e-10 0)
(0.018248 -7.56848e-10 0)
(0.0182481 -1.26581e-09 0)
(0.0182483 -1.98146e-09 0)
(0.0182486 -2.98671e-09 0)
(0.018249 -4.3894e-09 0)
(0.0182495 -6.32818e-09 0)
(0.0182502 -8.97925e-09 0)
(0.0182512 -1.25637e-08 0)
(0.0182525 -1.73553e-08 0)
(0.0182543 -2.36893e-08 0)
(0.0182566 -3.19709e-08 0)
(0.0182596 -4.26842e-08 0)
(0.0182634 -5.64009e-08 0)
(0.0182683 -7.37895e-08 0)
(0.0182744 -9.5623e-08 0)
(0.018282 -1.22787e-07 0)
(0.0182913 -1.56288e-07 0)
(0.0183027 -1.97261e-07 0)
(0.0183166 -2.46974e-07 0)
(0.0183332 -3.06842e-07 0)
(0.018353 -3.78436e-07 0)
(0.0183765 -4.63498e-07 0)
(0.0184042 -5.63961e-07 0)
(0.0184365 -6.81981e-07 0)
(0.018474 -8.19978e-07 0)
(0.0185174 -9.80698e-07 0)
(0.0185673 -1.1673e-06 0)
(0.0186244 -1.38349e-06 0)
(0.0186895 -1.63365e-06 0)
(0.0187634 -1.9232e-06 0)
(0.0188471 -2.2585e-06 0)
(0.0189418 -2.64898e-06 0)
(0.0190488 -3.10305e-06 0)
(0.0191694 -3.64254e-06 0)
(0.0192837 -4.17187e-06 0)
(0.019381 -4.63911e-06 0)
(0.0194834 -5.15275e-06 0)
(0.0195919 -5.7312e-06 0)
(0.0197066 -6.36966e-06 0)
(0.0198278 -7.08478e-06 0)
(0.0199561 -7.8862e-06 0)
(0.020092 -8.79078e-06 0)
(0.0202361 -9.8172e-06 0)
(0.0203894 -1.09898e-05 0)
(0.0205527 -1.23393e-05 0)
(0.0207275 -1.39059e-05 0)
(0.0209151 -1.57457e-05 0)
(0.0211178 -1.79384e-05 0)
(0.0213381 -2.06134e-05 0)
(0.0215803 -2.39729e-05 0)
(0.02185 -2.84066e-05 0)
(0.0221576 -3.45561e-05 0)
(0.0225188 -4.39009e-05 0)
(0.0229669 -5.90472e-05 0)
(0.0235561 -8.74656e-05 0)
(0.02443 -0.000147185 0)
(0.0258947 -0.000315238 0)
(0.0290672 -0.000973633 0)
(0.0384065 -0.00644076 0)
(0.034566 0.00252159 0)
(0.0288315 1.87622e-05 0)
(0.0247429 7.82711e-06 0)
(0.0247876 1.32933e-06 0)
(0.024107 1.71065e-06 0)
(0.0239729 6.49969e-07 0)
(0.0238128 5.22346e-07 0)
(0.0237431 2.86558e-07 0)
(0.0236919 1.96691e-07 0)
(0.023663 1.22796e-07 0)
(0.0236438 8.25192e-08 0)
(0.0236318 5.45593e-08 0)
(0.0236239 3.71746e-08 0)
(0.0236187 2.5477e-08 0)
(0.0236153 1.77663e-08 0)
(0.023613 1.25267e-08 0)
(0.0236114 8.95226e-09 0)
(0.0236103 6.47192e-09 0)
(0.0236095 4.73303e-09 0)
(0.0236089 3.49675e-09 0)
(0.0236085 2.60561e-09 0)
(0.0236082 1.95158e-09 0)
(0.023608 1.45933e-09 0)
(0.0236079 1.0738e-09 0)
(0.0236078 7.51998e-10 0)
(0.0236077 4.56772e-10 0)
(0.0236077 1.51835e-10 0)
(0.0236077 -2.02891e-10 0)
(0.0236077 -6.55891e-10 0)
(0.0236078 -1.26888e-09 0)
(0.023608 -2.12242e-09 0)
(0.0236082 -3.32255e-09 0)
(0.0236085 -5.00833e-09 0)
(0.023609 -7.36057e-09 0)
(0.0236097 -1.06118e-08 0)
(0.0236107 -1.50575e-08 0)
(0.0236119 -2.10684e-08 0)
(0.0236137 -2.91036e-08 0)
(0.0236159 -3.97254e-08 0)
(0.0236189 -5.36131e-08 0)
(0.0236228 -7.15784e-08 0)
(0.0236277 -9.45805e-08 0)
(0.023634 -1.2374e-07 0)
(0.0236419 -1.60353e-07 0)
(0.0236516 -2.05905e-07 0)
(0.0236637 -2.62084e-07 0)
(0.0236784 -3.30791e-07 0)
(0.0236963 -4.14156e-07 0)
(0.0237177 -5.14549e-07 0)
(0.0237433 -6.34605e-07 0)
(0.0237736 -7.77244e-07 0)
(0.0238093 -9.4571e-07 0)
(0.023851 -1.14361e-06 0)
(0.0238995 -1.37501e-06 0)
(0.0239555 -1.64451e-06 0)
(0.0240199 -1.95742e-06 0)
(0.0240935 -2.31992e-06 0)
(0.0241775 -2.73936e-06 0)
(0.0242729 -3.22486e-06 0)
(0.024381 -3.78706e-06 0)
(0.0245032 -4.44173e-06 0)
(0.0246412 -5.20306e-06 0)
(0.0247968 -6.10747e-06 0)
(0.0249442 -6.99478e-06 0)
(0.0250698 -7.77822e-06 0)
(0.025202 -8.63937e-06 0)
(0.025342 -9.60893e-06 0)
(0.0254899 -1.06792e-05 0)
(0.0256463 -1.18779e-05 0)
(0.0258118 -1.32214e-05 0)
(0.0259871 -1.47377e-05 0)
(0.026173 -1.64583e-05 0)
(0.0263707 -1.84242e-05 0)
(0.0265815 -2.06869e-05 0)
(0.0268069 -2.33144e-05 0)
(0.027049 -2.64013e-05 0)
(0.0273105 -3.00827e-05 0)
(0.0275949 -3.45776e-05 0)
(0.0279076 -4.02298e-05 0)
(0.0282561 -4.76988e-05 0)
(0.028654 -5.80784e-05 0)
(0.029122 -7.38642e-05 0)
(0.0297033 -9.95028e-05 0)
(0.0304693 -0.000147538 0)
(0.0316051 -0.000248308 0)
(0.0335032 -0.000524335 0)
(0.0374928 -0.00155023 0)
(0.0484294 -0.00820821 0)
(0.0439662 0.0032058 0)
(0.0367177 3.04349e-05 0)
(0.0315265 1.27212e-05 0)
(0.0315787 2.16864e-06 0)
(0.0307142 2.78095e-06 0)
(0.0305431 1.05811e-06 0)
(0.0303396 8.49473e-07 0)
(0.0302509 4.66231e-07 0)
(0.0301858 3.1993e-07 0)
(0.030149 1.99762e-07 0)
(0.0301245 1.34231e-07 0)
(0.0301093 8.87538e-08 0)
(0.0300993 6.04725e-08 0)
(0.0300927 4.14445e-08 0)
(0.0300883 2.89013e-08 0)
(0.0300853 2.0378e-08 0)
(0.0300833 1.45633e-08 0)
(0.0300819 1.05285e-08 0)
(0.0300809 7.69974e-09 0)
(0.0300802 5.68862e-09 0)
(0.0300797 4.23897e-09 0)
(0.0300793 3.17504e-09 0)
(0.0300791 2.37429e-09 0)
(0.0300789 1.74718e-09 0)
(0.0300788 1.22377e-09 0)
(0.0300787 7.43662e-10 0)
(0.0300786 2.47843e-10 0)
(0.0300786 -3.2884e-10 0)
(0.0300787 -1.06519e-09 0)
(0.0300788 -2.06152e-09 0)
(0.030079 -3.44878e-09 0)
(0.0300793 -5.39929e-09 0)
(0.0300797 -8.13904e-09 0)
(0.0300803 -1.19619e-08 0)
(0.0300812 -1.72458e-08 0)
(0.0300824 -2.44709e-08 0)
(0.030084 -3.42396e-08 0)
(0.0300862 -4.72985e-08 0)
(0.0300891 -6.45608e-08 0)
(0.0300929 -8.71307e-08 0)
(0.0300978 -1.16328e-07 0)
(0.0301041 -1.5371e-07 0)
(0.0301121 -2.01099e-07 0)
(0.030122 -2.60602e-07 0)
(0.0301345 -3.34632e-07 0)
(0.0301498 -4.25932e-07 0)
(0.0301685 -5.37592e-07 0)
(0.0301912 -6.73072e-07 0)
(0.0302184 -8.36226e-07 0)
(0.0302509 -1.03133e-06 0)
(0.0302895 -1.26314e-06 0)
(0.0303348 -1.53692e-06 0)
(0.0303877 -1.85853e-06 0)
(0.0304493 -2.23458e-06 0)
(0.0305204 -2.67253e-06 0)
(0.0306022 -3.18101e-06 0)
(0.0306958 -3.77007e-06 0)
(0.0308025 -4.45166e-06 0)
(0.0309237 -5.24056e-06 0)
(0.0310609 -6.15407e-06 0)
(0.0312161 -7.21777e-06 0)
(0.0313914 -8.45478e-06 0)
(0.0315891 -9.92408e-06 0)
(0.0317763 -1.13655e-05 0)
(0.0319357 -1.26384e-05 0)
(0.0321036 -1.40376e-05 0)
(0.0322814 -1.56124e-05 0)
(0.0324692 -1.73511e-05 0)
(0.0326678 -1.92982e-05 0)
(0.0328779 -2.14804e-05 0)
(0.0331005 -2.39436e-05 0)
(0.0333366 -2.67387e-05 0)
(0.0335876 -2.99325e-05 0)
(0.0338552 -3.36092e-05 0)
(0.0341414 -3.78799e-05 0)
(0.0344488 -4.28996e-05 0)
(0.0347809 -4.88905e-05 0)
(0.0351423 -5.62123e-05 0)
(0.0355397 -6.54327e-05 0)
(0.0359831 -7.76344e-05 0)
(0.0364898 -9.46273e-05 0)
(0.0370867 -0.00012049 0)
(0.0378293 -0.000162576 0)
(0.0388097 -0.000241229 0)
(0.0402612 -0.000405552 0)
(0.042672 -0.000842019 0)
(0.0475664 -0.00236859 0)
(0.0599289 -0.0102675 0)
(0.0552672 0.00402775 0)
(0.046225 4.8209e-05 0)
(0.0397138 2.01969e-05 0)
(0.0397723 3.45889e-06 0)
(0.0386876 4.4165e-06 0)
(0.0384716 1.68331e-06 0)
(0.038216 1.34969e-06 0)
(0.0381044 7.41185e-07 0)
(0.0380225 5.08435e-07 0)
(0.0379762 3.17517e-07 0)
(0.0379455 2.13338e-07 0)
(0.0379263 1.41067e-07 0)
(0.0379137 9.61144e-08 0)
(0.0379055 6.5873e-08 0)
(0.0379 4.59365e-08 0)
(0.0378962 3.23898e-08 0)
(0.0378937 2.31479e-08 0)
(0.0378919 1.67348e-08 0)
(0.0378907 1.22388e-08 0)
(0.0378898 9.04225e-09 0)
(0.0378892 6.73814e-09 0)
(0.0378887 5.0471e-09 0)
(0.0378884 3.77442e-09 0)
(0.0378881 2.77777e-09 0)
(0.037888 1.94602e-09 0)
(0.0378879 1.18319e-09 0)
(0.0378878 3.95572e-10 0)
(0.0378878 -5.2032e-10 0)
(0.0378879 -1.68963e-09 0)
(0.037888 -3.27161e-09 0)
(0.0378883 -5.47419e-09 0)
(0.0378886 -8.57093e-09 0)
(0.0378892 -1.29207e-08 0)
(0.0378899 -1.89899e-08 0)
(0.037891 -2.73786e-08 0)
(0.0378925 -3.88492e-08 0)
(0.0378946 -5.4358e-08 0)
(0.0378973 -7.509e-08 0)
(0.037901 -1.02495e-07 0)
(0.0379057 -1.38327e-07 0)
(0.0379119 -1.8468e-07 0)
(0.0379198 -2.44027e-07 0)
(0.0379298 -3.19261e-07 0)
(0.0379423 -4.13726e-07 0)
(0.0379579 -5.31255e-07 0)
(0.0379771 -6.762e-07 0)
(0.0380006 -8.53467e-07 0)
(0.0380291 -1.06855e-06 0)
(0.0380633 -1.32756e-06 0)
(0.0381041 -1.63731e-06 0)
(0.0381524 -2.0053e-06 0)
(0.0382093 -2.43993e-06 0)
(0.0382758 -2.95048e-06 0)
(0.038353 -3.54745e-06 0)
(0.0384423 -4.24267e-06 0)
(0.0385449 -5.04984e-06 0)
(0.0386624 -5.9849e-06 0)
(0.0387963 -7.06681e-06 0)
(0.0389483 -8.31901e-06 0)
(0.0391206 -9.76897e-06 0)
(0.0393153 -1.14572e-05 0)
(0.0395353 -1.34205e-05 0)
(0.0397833 -1.57521e-05 0)
(0.0400182 -1.80392e-05 0)
(0.0402182 -2.00596e-05 0)
(0.0404288 -2.22802e-05 0)
(0.0406519 -2.47784e-05 0)
(0.0408875 -2.75373e-05 0)
(0.0411366 -3.06265e-05 0)
(0.0414002 -3.40889e-05 0)
(0.0416793 -3.79969e-05 0)
(0.0419754 -4.24319e-05 0)
(0.0422902 -4.75e-05 0)
(0.0426258 -5.33355e-05 0)
(0.0429848 -6.01161e-05 0)
(0.0433705 -6.80901e-05 0)
(0.0437871 -7.76151e-05 0)
(0.0442406 -8.92693e-05 0)
(0.0447396 -0.00010397 0)
(0.045297 -0.000123454 0)
(0.0459346 -0.000150651 0)
(0.046687 -0.000192066 0)
(0.0476242 -0.000259567 0)
(0.0488634 -0.000385216 0)
(0.0506923 -0.000645787 0)
(0.0536978 -0.00131412 0)
(0.0595614 -0.00349474 0)
(0.0730509 -0.0126459 0)
(0.0688351 0.00501378 0)
(0.0576783 7.49665e-05 0)
(0.0495902 3.14939e-05 0)
(0.0496524 5.42379e-06 0)
(0.0483045 6.8893e-06 0)
(0.048034 2.63132e-06 0)
(0.0477161 2.10655e-06 0)
(0.0475769 1.15761e-06 0)
(0.0474749 7.93767e-07 0)
(0.0474173 4.95808e-07 0)
(0.047379 3.33095e-07 0)
(0.0473551 2.20269e-07 0)
(0.0473394 1.50075e-07 0)
(0.0473291 1.02858e-07 0)
(0.0473223 7.17281e-08 0)
(0.0473176 5.05763e-08 0)
(0.0473144 3.61455e-08 0)
(0.0473122 2.61319e-08 0)
(0.0473107 1.91115e-08 0)
(0.0473096 1.41203e-08 0)
(0.0473088 1.05225e-08 0)
(0.0473082 7.88204e-09 0)
(0.0473078 5.89488e-09 0)
(0.0473075 4.33881e-09 0)
(0.0473073 3.04038e-09 0)
(0.0473072 1.84979e-09 0)
(0.0473071 6.20792e-10 0)
(0.0473071 -8.08023e-10 0)
(0.0473072 -2.63184e-09 0)
(0.0473074 -5.09903e-09 0)
(0.0473077 -8.53381e-09 0)
(0.0473081 -1.33628e-08 0)
(0.0473088 -2.01455e-08 0)
(0.0473098 -2.96094e-08 0)
(0.0473111 -4.269e-08 0)
(0.047313 -6.0576e-08 0)
(0.0473155 -8.47588e-08 0)
(0.047319 -1.17086e-07 0)
(0.0473235 -1.59819e-07 0)
(0.0473294 -2.15691e-07 0)
(0.047337 -2.87968e-07 0)
(0.0473468 -3.80507e-07 0)
(0.0473593 -4.97818e-07 0)
(0.0473748 -6.45115e-07 0)
(0.0473942 -8.28374e-07 0)
(0.0474181 -1.05438e-06 0)
(0.0474473 -1.33079e-06 0)
(0.0474827 -1.66615e-06 0)
(0.0475252 -2.07002e-06 0)
(0.047576 -2.55298e-06 0)
(0.047636 -3.12677e-06 0)
(0.0477067 -3.80443e-06 0)
(0.0477894 -4.60047e-06 0)
(0.0478854 -5.53123e-06 0)
(0.0479964 -6.61516e-06 0)
(0.048124 -7.87359e-06 0)
(0.04827 -9.33139e-06 0)
(0.0484364 -1.10181e-05 0)
(0.0486254 -1.29701e-05 0)
(0.0488395 -1.52304e-05 0)
(0.0490815 -1.78619e-05 0)
(0.0493548 -2.09222e-05 0)
(0.0496631 -2.45557e-05 0)
(0.0499549 -2.81197e-05 0)
(0.0502034 -3.1269e-05 0)
(0.0504651 -3.47301e-05 0)
(0.0507423 -3.86219e-05 0)
(0.051035 -4.29209e-05 0)
(0.0513445 -4.77339e-05 0)
(0.0516719 -5.31285e-05 0)
(0.0520186 -5.92174e-05 0)
(0.0523864 -6.61277e-05 0)
(0.0527774 -7.40252e-05 0)
(0.0531942 -8.31207e-05 0)
(0.05364 -9.36934e-05 0)
(0.054119 -0.000106135 0)
(0.0546367 -0.00012101 0)
(0.0552003 -0.000139234 0)
(0.0558209 -0.000162264 0)
(0.0565147 -0.000192839 0)
(0.0573094 -0.000235618 0)
(0.0582487 -0.000300771 0)
(0.0594198 -0.000407049 0)
(0.060969 -0.000603689 0)
(0.0632426 -0.00100678 0)