/*--------------------------------*- C++ -*----------------------------------*\
| =========                 |                                                 |
| \\      /  F ield         | OpenFOAM: The Open Source CFD Toolbox           |
|  \\    /   O peration     | Version:  2506                                  |
|   \\  /    A nd           | Website:  www.openfoam.com                      |
|    \\/     M anipulation  |                                                 |
\*---------------------------------------------------------------------------*/
FoamFile
{
    version     2.0;
    format      ascii;
    arch        "LSB;label=32;scalar=64";
    class       volScalarField;
    location    "1000";
    object      p;
}
// * * * * * * * * * * * * * * * * * * * * * * * * * * * * * * * * * * * * * //

dimensions      [0 2 -2 0 0 0 0];

internalField   nonuniform List<scalar> 
20540
(
3.78012
3.39418
3.78011
3.39416
3.78009
3.39413
3.78007
3.39411
3.78004
3.39408
3.78001
3.39404
3.77996
3.394
3.77991
3.39396
3.77984
3.3939
3.77975
3.39384
3.77964
3.39376
3.77951
3.39368
3.77935
3.39357
3.77916
3.39345
3.77892
3.3933
3.77864
3.39312
3.77829
3.39291
3.77788
3.39266
3.77739
3.39236
3.7768
3.392
3.77611
3.39157
3.77529
3.39107
3.77434
3.39049
3.77325
3.38982
3.77202
3.38907
3.77064
3.38825
3.76916
3.38738
3.76761
3.3865
3.76608
3.38565
3.7647
3.38488
3.76375
3.38429
3.7633
3.38393
3.76329
3.38378
3.76373
3.38384
3.76465
3.38412
3.76599
3.3846
3.76747
3.3852
3.76899
3.38589
3.77046
3.38661
3.77183
3.38732
3.77308
3.38798
3.77419
3.38859
3.77516
3.38913
3.776
3.3896
3.77672
3.39
3.77734
3.39035
3.77786
3.39064
3.7783
3.39089
3.77867
3.3911
3.77897
3.39127
3.77923
3.39142
3.77945
3.39155
3.77962
3.39165
3.77977
3.39175
3.77989
3.39182
3.77999
3.39189
3.78007
3.39194
3.78013
3.39199
3.78019
3.39203
3.78023
3.39207
3.78026
3.3921
3.78029
3.39213
3.78031
3.39216
3.78033
3.39218
3.78034
3.39219
3.2431
3.03263
2.95617
2.84909
2.76198
2.67545
2.59433
2.51629
2.44154
2.36966
2.30053
2.23398
2.16991
2.1082
2.04875
1.99149
1.93631
1.88316
1.83195
1.7826
1.73506
1.68925
1.64511
1.60258
1.5616
1.52212
1.48407
1.44741
1.41209
1.37806
1.34526
1.31366
1.28321
1.25387
1.2256
1.19835
1.1721
1.14679
1.1224
1.09889
1.07622
1.05437
1.03329
1.01296
0.993346
0.974414
0.956134
0.938477
0.921412
0.90491
0.888941
0.873476
0.858488
0.843946
0.829825
0.816094
0.802728
0.789698
0.776977
0.764538
0.752351
0.740391
0.728625
0.718937
0.711422
0.704156
0.697115
0.690292
0.683671
0.677243
0.670995
0.664918
0.659002
0.653237
0.647615
0.642129
0.636776
0.631554
0.626471
0.621541
0.616806
0.612315
0.608221
0.604655
0.602246
0.601548
0.606779
0.595682
3.24309
3.03264
2.95618
2.84909
2.76198
2.67545
2.59433
2.51629
2.44154
2.36966
2.30053
2.23398
2.16991
2.1082
2.04875
1.99149
1.93631
1.88316
1.83195
1.7826
1.73506
1.68925
1.64511
1.60258
1.5616
1.52212
1.48407
1.44741
1.41209
1.37806
1.34526
1.31366
1.28321
1.25387
1.2256
1.19835
1.1721
1.14679
1.1224
1.09889
1.07622
1.05437
1.03329
1.01296
0.993346
0.974414
0.956134
0.938477
0.921412
0.904909
0.88894
0.873476
0.858487
0.843946
0.829824
0.816093
0.802727
0.789697
0.776975
0.764536
0.752349
0.740388
0.728622
0.718934
0.711418
0.704151
0.69711
0.690286
0.683665
0.677236
0.670988
0.66491
0.658992
0.653226
0.647603
0.642115
0.63676
0.631536
0.62645
0.621516
0.616776
0.612277
0.608169
0.604579
0.602118
0.601267
0.605789
0.594359
3.24307
3.03265
2.95618
2.84909
2.76198
2.67545
2.59433
2.51629
2.44154
2.36966
2.30053
2.23398
2.16991
2.1082
2.04875
1.99149
1.93631
1.88316
1.83195
1.7826
1.73506
1.68925
1.64511
1.60258
1.5616
1.52212
1.48407
1.44741
1.41209
1.37806
1.34526
1.31366
1.28321
1.25387
1.2256
1.19835
1.1721
1.14679
1.1224
1.09889
1.07622
1.05437
1.03329
1.01296
0.993345
0.974413
0.956134
0.938476
0.921411
0.904909
0.88894
0.873475
0.858486
0.843945
0.829823
0.816092
0.802725
0.789695
0.776973
0.764533
0.752346
0.740384
0.728617
0.718929
0.711412
0.704145
0.697103
0.690278
0.683656
0.677226
0.670977
0.664898
0.658979
0.653211
0.647586
0.642096
0.636738
0.631511
0.626421
0.621482
0.616734
0.612224
0.608099
0.604475
0.601942
0.600882
0.604468
0.592836
3.24305
3.03266
2.95618
2.84909
2.76198
2.67545
2.59433
2.51629
2.44154
2.36966
2.30053
2.23398
2.16991
2.1082
2.04875
1.99149
1.93631
1.88316
1.83195
1.7826
1.73506
1.68925
1.64511
1.60258
1.5616
1.52212
1.48407
1.44741
1.41209
1.37806
1.34526
1.31366
1.28321
1.25387
1.2256
1.19835
1.1721
1.14679
1.1224
1.09889
1.07622
1.05437
1.03329
1.01296
0.993345
0.974413
0.956134
0.938476
0.921411
0.904908
0.888939
0.873474
0.858485
0.843943
0.829821
0.81609
0.802723
0.789692
0.77697
0.76453
0.752342
0.74038
0.728612
0.718923
0.711405
0.704138
0.697095
0.690269
0.683646
0.677215
0.670964
0.664884
0.658963
0.653193
0.647566
0.642074
0.636713
0.631482
0.626387
0.621442
0.616685
0.612161
0.608015
0.60435
0.601732
0.600429
0.602975
0.591162
3.24302
3.03267
2.95619
2.84909
2.76198
2.67545
2.59433
2.51629
2.44154
2.36966
2.30053
2.23398
2.16991
2.1082
2.04875
1.99149
1.93631
1.88316
1.83195
1.7826
1.73506
1.68925
1.64511
1.60258
1.5616
1.52212
1.48407
1.44741
1.41209
1.37806
1.34526
1.31366
1.28321
1.25387
1.2256
1.19835
1.1721
1.14679
1.1224
1.09889
1.07622
1.05437
1.03329
1.01296
0.993345
0.974413
0.956133
0.938476
0.92141
0.904908
0.888938
0.873473
0.858484
0.843942
0.82982
0.816088
0.802721
0.78969
0.776967
0.764526
0.752338
0.740375
0.728606
0.718916
0.711398
0.704129
0.697085
0.690259
0.683634
0.677202
0.67095
0.664867
0.658945
0.653173
0.647542
0.642047
0.636682
0.631447
0.626346
0.621393
0.616626
0.612087
0.607914
0.6042
0.601477
0.599891
0.601284
0.589255
3.243
3.03268
2.9562
2.84909
2.76198
2.67545
2.59433
2.51629
2.44154
2.36966
2.30053
2.23398
2.16991
2.1082
2.04875
1.99149
1.93631
1.88316
1.83195
1.7826
1.73506
1.68925
1.64511
1.60258
1.5616
1.52212
1.48407
1.44741
1.41209
1.37806
1.34526
1.31366
1.28321
1.25387
1.2256
1.19835
1.1721
1.14679
1.1224
1.09889
1.07622
1.05437
1.03329
1.01296
0.993345
0.974413
0.956133
0.938475
0.92141
0.904907
0.888937
0.873472
0.858483
0.84394
0.829818
0.816086
0.802718
0.789686
0.776963
0.764521
0.752332
0.740368
0.728599
0.718907
0.711388
0.704119
0.697074
0.690246
0.68362
0.677186
0.670932
0.664847
0.658922
0.653147
0.647514
0.642015
0.636646
0.631405
0.626297
0.621335
0.616555
0.611996
0.607791
0.604017
0.601166
0.599244
0.599369
0.58706
3.24297
3.03269
2.9562
2.84909
2.76198
2.67545
2.59433
2.51629
2.44154
2.36966
2.30053
2.23398
2.16991
2.1082
2.04875
1.99149
1.93631
1.88316
1.83195
1.7826
1.73506
1.68925
1.64511
1.60258
1.5616
1.52212
1.48407
1.44741
1.41209
1.37806
1.34526
1.31366
1.28321
1.25387
1.2256
1.19835
1.1721
1.14679
1.1224
1.09889
1.07622
1.05437
1.03329
1.01296
0.993345
0.974412
0.956132
0.938475
0.921409
0.904906
0.888936
0.873471
0.858481
0.843938
0.829815
0.816083
0.802715
0.789682
0.776959
0.764516
0.752326
0.740361
0.72859
0.718897
0.711377
0.704106
0.69706
0.69023
0.683602
0.677166
0.67091
0.664823
0.658895
0.653117
0.64748
0.641976
0.636602
0.631354
0.626238
0.621265
0.616469
0.611886
0.607641
0.603793
0.600785
0.598471
0.597227
0.584546
3.24293
3.03271
2.95621
2.8491
2.76198
2.67546
2.59433
2.51629
2.44154
2.36966
2.30053
2.23398
2.16991
2.1082
2.04875
1.99149
1.93631
1.88316
1.83195
1.7826
1.73506
1.68925
1.64511
1.60258
1.5616
1.52212
1.48407
1.44741
1.41209
1.37806
1.34526
1.31366
1.28321
1.25387
1.2256
1.19835
1.1721
1.14679
1.1224
1.09889
1.07622
1.05437
1.03329
1.01296
0.993344
0.974412
0.956132
0.938474
0.921408
0.904905
0.888935
0.873469
0.858479
0.843936
0.829812
0.81608
0.802711
0.789678
0.776953
0.764509
0.752318
0.740352
0.728579
0.718885
0.711363
0.704091
0.697043
0.690211
0.683582
0.677143
0.670884
0.664794
0.658863
0.653081
0.647439
0.64193
0.636549
0.631293
0.626167
0.62118
0.616365
0.611752
0.607459
0.60352
0.60032
0.597548
0.594874
0.581695
3.24289
3.03273
2.95622
2.8491
2.76199
2.67546
2.59433
2.51629
2.44154
2.36966
2.30053
2.23398
2.16991
2.1082
2.04875
1.99149
1.93631
1.88316
1.83195
1.7826
1.73506
1.68925
1.64511
1.60258
1.5616
1.52212
1.48407
1.44741
1.41209
1.37806
1.34526
1.31366
1.28321
1.25387
1.2256
1.19835
1.1721
1.14679
1.1224
1.09889
1.07622
1.05437
1.03329
1.01296
0.993344
0.974411
0.956131
0.938473
0.921407
0.904903
0.888933
0.873467
0.858476
0.843933
0.829809
0.816076
0.802706
0.789672
0.776946
0.764501
0.752308
0.740341
0.728566
0.71887
0.711347
0.704072
0.697023
0.690189
0.683557
0.677115
0.670853
0.664759
0.658824
0.653037
0.64739
0.641874
0.636485
0.631219
0.626081
0.621077
0.616239
0.61159
0.607236
0.603187
0.599757
0.596456
0.592341
0.578506
3.24284
3.03276
2.95623
2.8491
2.76199
2.67546
2.59433
2.51629
2.44154
2.36966
2.30053
2.23398
2.16991
2.1082
2.04875
1.99149
1.93631
1.88316
1.83195
1.7826
1.73506
1.68925
1.64511
1.60258
1.5616
1.52212
1.48407
1.44741
1.41209
1.37806
1.34526
1.31366
1.28321
1.25387
1.2256
1.19835
1.1721
1.14679
1.1224
1.09889
1.07622
1.05437
1.03329
1.01296
0.993343
0.974411
0.95613
0.938472
0.921406
0.904902
0.888931
0.873465
0.858474
0.84393
0.829805
0.816071
0.8027
0.789665
0.776938
0.764491
0.752297
0.740327
0.72855
0.718852
0.711327
0.704051
0.696998
0.690162
0.683527
0.677082
0.670816
0.664718
0.658778
0.652985
0.647331
0.641807
0.636409
0.631131
0.625978
0.620954
0.616087
0.611393
0.606966
0.602781
0.599077
0.595176
0.589683
0.575012
3.24278
3.03279
2.95625
2.8491
2.76199
2.67546
2.59433
2.51629
2.44154
2.36966
2.30053
2.23398
2.16991
2.1082
2.04875
1.99149
1.93631
1.88316
1.83195
1.7826
1.73506
1.68925
1.64511
1.60258
1.5616
1.52212
1.48407
1.44741
1.41209
1.37806
1.34526
1.31366
1.28321
1.25387
1.2256
1.19835
1.1721
1.14679
1.1224
1.09889
1.07622
1.05437
1.03329
1.01296
0.993343
0.97441
0.956129
0.938471
0.921404
0.9049
0.888929
0.873462
0.85847
0.843925
0.8298
0.816065
0.802693
0.789657
0.776928
0.76448
0.752284
0.740312
0.728532
0.718831
0.711303
0.704024
0.696969
0.690129
0.683491
0.677042
0.670771
0.664668
0.658722
0.652922
0.64726
0.641728
0.636317
0.631026
0.625854
0.620806
0.615903
0.611156
0.606637
0.60229
0.598265
0.593697
0.586974
0.571301
3.24272
3.03283
2.95627
2.84911
2.762
2.67546
2.59434
2.51629
2.44154
2.36966
2.30053
2.23398
2.16991
2.1082
2.04875
1.99149
1.93631
1.88316
1.83195
1.7826
1.73506
1.68925
1.64511
1.60258
1.5616
1.52212
1.48407
1.44741
1.41209
1.37806
1.34526
1.31366
1.28321
1.25387
1.2256
1.19835
1.17209
1.14679
1.1224
1.09889
1.07622
1.05436
1.03329
1.01296
0.993342
0.974409
0.956128
0.938469
0.921402
0.904898
0.888926
0.873458
0.858466
0.84392
0.829794
0.816058
0.802684
0.789647
0.776916
0.764466
0.752268
0.740293
0.72851
0.718806
0.711275
0.703993
0.696935
0.690091
0.683448
0.676994
0.670718
0.664609
0.658656
0.652848
0.647176
0.641632
0.636209
0.6309
0.625706
0.620628
0.615682
0.610868
0.606239
0.6017
0.597307
0.592025
0.584303
0.567536
3.24264
3.03287
2.95629
2.84911
2.762
2.67546
2.59434
2.51629
2.44154
2.36966
2.30053
2.23398
2.16991
2.1082
2.04875
1.99149
1.93631
1.88316
1.83195
1.7826
1.73506
1.68925
1.64511
1.60258
1.5616
1.52212
1.48407
1.44741
1.41209
1.37806
1.34526
1.31366
1.28321
1.25387
1.2256
1.19835
1.17209
1.14679
1.1224
1.09889
1.07622
1.05436
1.03329
1.01296
0.993341
0.974408
0.956127
0.938467
0.9214
0.904895
0.888923
0.873454
0.858461
0.843915
0.829787
0.816049
0.802674
0.789635
0.776903
0.76445
0.752249
0.74027
0.728484
0.718776
0.711242
0.703956
0.696893
0.690045
0.683397
0.676938
0.670656
0.664539
0.658577
0.65276
0.647077
0.641519
0.636079
0.63075
0.62553
0.620415
0.615417
0.610523
0.605762
0.600999
0.596198
0.590192
0.581767
0.563967
3.24255
3.03292
2.95631
2.84912
2.76201
2.67546
2.59434
2.51629
2.44154
2.36966
2.30053
2.23398
2.16991
2.1082
2.04875
1.99149
1.93631
1.88316
1.83195
1.7826
1.73506
1.68925
1.64511
1.60258
1.5616
1.52212
1.48407
1.44741
1.41209
1.37806
1.34526
1.31366
1.28321
1.25387
1.2256
1.19835
1.17209
1.14679
1.1224
1.09889
1.07622
1.05436
1.03329
1.01296
0.99334
0.974406
0.956125
0.938465
0.921397
0.904892
0.888919
0.873449
0.858455
0.843908
0.829778
0.816039
0.802663
0.789621
0.776886
0.764431
0.752226
0.740244
0.728453
0.71874
0.711203
0.703913
0.696845
0.689991
0.683337
0.676871
0.670581
0.664456
0.658485
0.652656
0.64696
0.641386
0.635926
0.630573
0.625321
0.620163
0.615101
0.610112
0.605195
0.60018
0.594945
0.588269
0.57946
0.560918
3.24243
3.03298
2.95634
2.84912
2.76201
2.67547
2.59434
2.51629
2.44154
2.36966
2.30053
2.23399
2.16991
2.1082
2.04875
1.99149
1.93631
1.88316
1.83195
1.7826
1.73506
1.68925
1.64511
1.60258
1.5616
1.52212
1.48407
1.44741
1.41209
1.37806
1.34526
1.31366
1.28321
1.25387
1.2256
1.19835
1.17209
1.14679
1.1224
1.09889
1.07622
1.05436
1.03329
1.01296
0.993339
0.974405
0.956123
0.938463
0.921394
0.904888
0.888914
0.873444
0.858448
0.843899
0.829768
0.816027
0.802649
0.789604
0.776867
0.764408
0.752199
0.740213
0.728416
0.718699
0.711156
0.703861
0.696788
0.689928
0.683267
0.676793
0.670494
0.664359
0.658376
0.652534
0.646822
0.64123
0.635747
0.630365
0.625075
0.619865
0.614728
0.609629
0.604534
0.59925
0.59358
0.586368
0.577474
0.558783
3.2423
3.03306
2.95638
2.84913
2.76202
2.67547
2.59434
2.51629
2.44154
2.36966
2.30053
2.23399
2.16991
2.1082
2.04875
1.99149
1.93632
1.88316
1.83195
1.7826
1.73506
1.68925
1.64511
1.60258
1.5616
1.52212
1.48407
1.44741
1.41209
1.37806
1.34526
1.31366
1.28321
1.25387
1.2256
1.19835
1.17209
1.14679
1.1224
1.09888
1.07622
1.05436
1.03329
1.01295
0.993337
0.974403
0.956121
0.93846
0.921391
0.904883
0.888909
0.873437
0.85844
0.84389
0.829757
0.816014
0.802632
0.789585
0.776844
0.764381
0.752168
0.740177
0.728374
0.71865
0.711102
0.703801
0.696721
0.689854
0.683185
0.676702
0.670393
0.664246
0.65825
0.652392
0.646662
0.641049
0.63554
0.630124
0.624789
0.61952
0.614297
0.609073
0.603787
0.598232
0.592171
0.584642
0.575915
0.557923
3.24214
3.03314
2.95642
2.84914
2.76203
2.67547
2.59435
2.5163
2.44154
2.36966
2.30053
2.23399
2.16991
2.1082
2.04875
1.99149
1.93632
1.88316
1.83195
1.7826
1.73506
1.68925
1.64511
1.60258
1.5616
1.52212
1.48407
1.44741
1.41209
1.37806
1.34526
1.31366
1.28321
1.25387
1.2256
1.19835
1.17209
1.14679
1.1224
1.09888
1.07622
1.05436
1.03328
1.01295
0.993336
0.974401
0.956118
0.938456
0.921386
0.904878
0.888902
0.873429
0.858431
0.843878
0.829743
0.815998
0.802614
0.789563
0.776818
0.764351
0.752132
0.740135
0.728325
0.718594
0.71104
0.703732
0.696645
0.689769
0.683091
0.676598
0.670277
0.664117
0.658105
0.652231
0.64648
0.640842
0.635303
0.629849
0.624465
0.619128
0.61381
0.608454
0.602978
0.597184
0.590833
0.583268
0.574923
0.558518
3.24195
3.03325
2.95646
2.84915
2.76204
2.67548
2.59435
2.5163
2.44155
2.36966
2.30053
2.23399
2.16991
2.1082
2.04875
1.99149
1.93632
1.88316
1.83195
1.7826
1.73506
1.68925
1.64511
1.60258
1.5616
1.52212
1.48407
1.44741
1.41209
1.37806
1.34526
1.31366
1.28321
1.25387
1.2256
1.19835
1.17209
1.14679
1.1224
1.09888
1.07622
1.05436
1.03328
1.01295
0.993334
0.974398
0.956115
0.938453
0.921382
0.904872
0.888895
0.873421
0.85842
0.843866
0.829728
0.815979
0.802592
0.789538
0.776788
0.764316
0.752091
0.740087
0.728269
0.71853
0.710969
0.703653
0.696558
0.689673
0.682984
0.67648
0.670146
0.663972
0.657944
0.65205
0.646277
0.640612
0.63504
0.629545
0.624107
0.618699
0.613286
0.607804
0.602166
0.596204
0.589731
0.582424
0.574664
0.560508
3.24172
3.03337
2.95651
2.84916
2.76205
2.67548
2.59435
2.5163
2.44155
2.36967
2.30053
2.23399
2.16991
2.1082
2.04875
1.99149
1.93632
1.88316
1.83195
1.7826
1.73506
1.68925
1.64511
1.60258
1.5616
1.52212
1.48407
1.44741
1.41209
1.37806
1.34526
1.31366
1.28321
1.25387
1.2256
1.19835
1.17209
1.14679
1.1224
1.09888
1.07622
1.05436
1.03328
1.01295
0.993331
0.974396
0.956111
0.938448
0.921376
0.904866
0.888887
0.873411
0.858408
0.843851
0.829711
0.815959
0.802568
0.789509
0.776755
0.764277
0.752046
0.740033
0.728206
0.718459
0.710891
0.703566
0.696462
0.689567
0.682867
0.67635
0.670003
0.663813
0.657768
0.651854
0.646058
0.640365
0.63476
0.629224
0.623734
0.618261
0.612764
0.607187
0.601452
0.595441
0.589064
0.582283
0.575299
0.563645
3.24145
3.03352
2.95657
2.84918
2.76207
2.67549
2.59436
2.5163
2.44155
2.36967
2.30053
2.23399
2.16991
2.1082
2.04875
1.99149
1.93632
1.88316
1.83195
1.7826
1.73506
1.68925
1.64511
1.60258
1.5616
1.52212
1.48407
1.44741
1.41209
1.37806
1.34526
1.31366
1.28321
1.25387
1.2256
1.19835
1.17209
1.14679
1.1224
1.09888
1.07622
1.05436
1.03328
1.01295
0.993329
0.974393
0.956108
0.938443
0.92137
0.904858
0.888878
0.8734
0.858395
0.843835
0.829692
0.815937
0.802541
0.789478
0.776718
0.764234
0.751996
0.739975
0.728139
0.718382
0.710806
0.703473
0.696359
0.689454
0.682743
0.676214
0.669853
0.663648
0.657586
0.651654
0.645836
0.640119
0.634485
0.628915
0.623385
0.617866
0.612324
0.606713
0.600986
0.595092
0.589046
0.582992
0.576931
0.56763
3.24112
3.03371
2.95663
2.8492
2.76208
2.6755
2.59436
2.51631
2.44155
2.36967
2.30053
2.23399
2.16991
2.1082
2.04875
1.99149
1.93632
1.88316
1.83195
1.7826
1.73506
1.68925
1.64511
1.60258
1.5616
1.52212
1.48407
1.44741
1.41209
1.37806
1.34526
1.31366
1.28321
1.25387
1.2256
1.19835
1.17209
1.14679
1.12239
1.09888
1.07621
1.05436
1.03328
1.01295
0.993327
0.974389
0.956104
0.938439
0.921364
0.904851
0.888869
0.873388
0.858382
0.843819
0.829673
0.815914
0.802514
0.789446
0.776681
0.76419
0.751945
0.739916
0.728071
0.718305
0.710722
0.70338
0.696258
0.689343
0.682622
0.676082
0.669711
0.663494
0.657419
0.651472
0.645641
0.639908
0.634259
0.628674
0.623133
0.617613
0.612092
0.606549
0.600974
0.595383
0.589878
0.584668
0.579588
0.572248
3.24074
3.03394
2.95669
2.84923
2.7621
2.67551
2.59437
2.51631
2.44155
2.36967
2.30054
2.23399
2.16991
2.1082
2.04875
1.99149
1.93632
1.88316
1.83195
1.7826
1.73506
1.68925
1.64511
1.60258
1.5616
1.52212
1.48407
1.44741
1.41209
1.37806
1.34526
1.31366
1.28321
1.25387
1.2256
1.19835
1.17209
1.14679
1.12239
1.09888
1.07621
1.05436
1.03328
1.01294
0.993324
0.974386
0.9561
0.938434
0.921358
0.904843
0.88886
0.873378
0.858369
0.843804
0.829654
0.815892
0.802488
0.789416
0.776646
0.764149
0.751898
0.739862
0.728009
0.718236
0.710646
0.703298
0.69617
0.689249
0.682523
0.675977
0.669599
0.663378
0.6573
0.651352
0.645521
0.639795
0.634158
0.628597
0.623098
0.617652
0.612254
0.606912
0.601653
0.596542
0.591723
0.587387
0.583246
0.577422
3.24031
3.03424
2.95675
2.84927
2.76211
2.67552
2.59437
2.51631
2.44156
2.36967
2.30054
2.23399
2.16991
2.1082
2.04875
1.99149
1.93632
1.88316
1.83195
1.7826
1.73506
1.68925
1.64511
1.60258
1.5616
1.52212
1.48407
1.44741
1.41209
1.37806
1.34526
1.31366
1.28321
1.25387
1.2256
1.19835
1.17209
1.14679
1.12239
1.09888
1.07621
1.05436
1.03328
1.01294
0.993322
0.974384
0.956097
0.93843
0.921354
0.904838
0.888853
0.873369
0.858359
0.843792
0.82964
0.815875
0.802469
0.789393
0.776619
0.76412
0.751864
0.739824
0.727968
0.718191
0.7106
0.703251
0.696122
0.689202
0.682477
0.675936
0.669566
0.663355
0.657292
0.651366
0.645567
0.639885
0.634311
0.628838
0.623466
0.618198
0.613051
0.608057
0.603268
0.598767
0.594697
0.591189
0.587877
0.583186
3.23984
3.03464
2.95681
2.84932
2.76212
2.67553
2.59438
2.51632
2.44156
2.36967
2.30054
2.23399
2.16991
2.1082
2.04875
1.99149
1.93632
1.88316
1.83195
1.7826
1.73506
1.68925
1.64511
1.60258
1.5616
1.52212
1.48407
1.44741
1.41209
1.37806
1.34526
1.31366
1.28321
1.25387
1.2256
1.19835
1.17209
1.14679
1.12239
1.09888
1.07621
1.05436
1.03328
1.01294
0.993322
0.974383
0.956096
0.938429
0.921352
0.904836
0.888851
0.873367
0.858356
0.843788
0.829636
0.815871
0.802464
0.789389
0.776615
0.764116
0.751862
0.739825
0.727973
0.718202
0.710617
0.703276
0.696159
0.689253
0.682546
0.676028
0.669688
0.663515
0.657502
0.65164
0.645923
0.640347
0.634912
0.62962
0.624483
0.619519
0.614759
0.610245
0.606036
0.602208
0.598873
0.596096
0.593475
0.589633
3.23934
3.03519
2.95686
2.8494
2.76213
2.67555
2.59439
2.51632
2.44156
2.36967
2.30054
2.23399
2.16991
2.1082
2.04875
1.99149
1.93632
1.88316
1.83195
1.7826
1.73506
1.68925
1.64511
1.60258
1.5616
1.52212
1.48407
1.44741
1.41209
1.37806
1.34526
1.31366
1.28321
1.25387
1.2256
1.19835
1.17209
1.14679
1.12239
1.09888
1.07621
1.05436
1.03328
1.01294
0.993324
0.974386
0.956099
0.938433
0.921357
0.904842
0.888859
0.873377
0.858368
0.843803
0.829654
0.815893
0.802491
0.789421
0.776655
0.764165
0.751923
0.739901
0.728069
0.718321
0.710758
0.703441
0.696356
0.689489
0.682829
0.676367
0.670096
0.664008
0.658098
0.652363
0.646804
0.641423
0.636226
0.631228
0.626447
0.621909
0.617648
0.613706
0.610126
0.606964
0.604292
0.602122
0.600058
0.59687
3.23886
3.03593
2.95689
2.84951
2.76214
2.67558
2.59439
2.51633
2.44156
2.36968
2.30054
2.23399
2.16991
2.1082
2.04876
1.99149
1.93632
1.88316
1.83195
1.7826
1.73506
1.68925
1.64511
1.60258
1.5616
1.52212
1.48407
1.44741
1.41209
1.37806
1.34526
1.31366
1.28321
1.25387
1.2256
1.19835
1.17209
1.14679
1.1224
1.09888
1.07622
1.05436
1.03328
1.01295
0.993331
0.974395
0.95611
0.938447
0.921375
0.904864
0.888886
0.87341
0.858408
0.843851
0.829713
0.815963
0.802576
0.789523
0.776778
0.764313
0.752102
0.740117
0.728334
0.718636
0.711121
0.703861
0.696843
0.690053
0.683486
0.677133
0.67099
0.665055
0.659327
0.653809
0.648505
0.643424
0.638579
0.633987
0.629669
0.625649
0.621953
0.61861
0.615646
0.613087
0.610972
0.609282
0.607656
0.604996
3.23845
3.03694
2.95692
2.84967
2.76214
2.67561
2.5944
2.51634
2.44157
2.36968
2.30054
2.23399
2.16992
2.1082
2.04876
1.99149
1.93632
1.88316
1.83195
1.7826
1.73506
1.68925
1.64511
1.60258
1.5616
1.52212
1.48407
1.44741
1.41209
1.37806
1.34526
1.31366
1.28321
1.25387
1.2256
1.19835
1.1721
1.14679
1.1224
1.09889
1.07622
1.05437
1.03329
1.01296
0.993347
0.974415
0.956136
0.93848
0.921415
0.904914
0.888947
0.873484
0.858498
0.843961
0.829844
0.816121
0.802764
0.789748
0.777046
0.764634
0.752486
0.740578
0.72889
0.719289
0.711866
0.70471
0.697813
0.691163
0.684756
0.678587
0.672658
0.666967
0.661519
0.65632
0.651378
0.646704
0.64231
0.63821
0.634421
0.630957
0.627832
0.625056
0.622638
0.620584
0.618907
0.617572
0.616278
0.614067
3.23816
3.03828
2.95695
2.84991
2.76213
2.67566
2.59441
2.51635
2.44157
2.36968
2.30054
2.23399
2.16992
2.1082
2.04876
1.99149
1.93632
1.88316
1.83195
1.7826
1.73506
1.68925
1.64511
1.60258
1.5616
1.52212
1.48407
1.44741
1.41209
1.37806
1.34526
1.31366
1.28321
1.25387
1.2256
1.19836
1.1721
1.14679
1.1224
1.0989
1.07623
1.05438
1.03331
1.01299
0.993378
0.974455
0.956187
0.938543
0.921494
0.905012
0.889066
0.87363
0.858675
0.844174
0.8301
0.816427
0.803129
0.790182
0.777562
0.765246
0.753214
0.741445
0.729925
0.720495
0.713227
0.706248
0.699549
0.693122
0.686965
0.681078
0.675461
0.670118
0.665054
0.660275
0.655787
0.651599
0.647717
0.644149
0.6409
0.637973
0.63537
0.633087
0.631118
0.629456
0.6281
0.627012
0.625961
0.624156
3.23806
3.03993
2.957
2.85023
2.76213
2.67572
2.59442
2.51637
2.44158
2.36969
2.30055
2.234
2.16992
2.1082
2.04876
1.99149
1.93632
1.88316
1.83195
1.7826
1.73506
1.68925
1.64511
1.60258
1.5616
1.52212
1.48407
1.44741
1.41209
1.37806
1.34526
1.31366
1.28322
1.25388
1.2256
1.19836
1.1721
1.1468
1.12242
1.09891
1.07625
1.05441
1.03334
1.01303
0.993435
0.974528
0.956278
0.938657
0.921636
0.905187
0.889281
0.873891
0.858991
0.844555
0.830557
0.816972
0.803778
0.790951
0.778472
0.766322
0.754484
0.742946
0.731701
0.722545
0.715521
0.70881
0.702406
0.696302
0.690496
0.68499
0.679784
0.67488
0.67028
0.665987
0.662001
0.658324
0.654955
0.651893
0.649131
0.646665
0.644486
0.642581
0.640938
0.639542
0.638386
0.637436
0.636535
0.635096
3.23815
3.04171
2.95711
2.85061
2.76214
2.67579
2.59444
2.51639
2.44159
2.3697
2.30055
2.234
2.16992
2.1082
2.04876
1.99149
1.93632
1.88316
1.83195
1.7826
1.73506
1.68925
1.64511
1.60258
1.5616
1.52212
1.48407
1.44741
1.41209
1.37806
1.34526
1.31367
1.28322
1.25388
1.22561
1.19837
1.17211
1.14682
1.12243
1.09894
1.07629
1.05445
1.0334
1.0131
0.993531
0.974649
0.956431
0.938849
0.921874
0.90548
0.889641
0.874329
0.859521
0.845192
0.831318
0.817879
0.804853
0.792222
0.779969
0.768081
0.756547
0.745362
0.734528
0.725771
0.719097
0.712761
0.706756
0.701073
0.695713
0.690673
0.685949
0.681541
0.677444
0.673654
0.670167
0.666975
0.664071
0.661446
0.659089
0.656988
0.65513
0.653499
0.65208
0.650859
0.649824
0.64895
0.648148
0.647064
3.23843
3.0431
2.95732
2.85092
2.76217
2.67586
2.59446
2.5164
2.4416
2.3697
2.30056
2.234
2.16992
2.10821
2.04876
1.99149
1.93632
1.88316
1.83195
1.7826
1.73506
1.68925
1.64511
1.60258
1.5616
1.52212
1.48407
1.44741
1.41209
1.37806
1.34527
1.31367
1.28322
1.25388
1.22562
1.19838
1.17213
1.14683
1.12246
1.09897
1.07633
1.05451
1.03348
1.01321
0.993661
0.974815
0.956641
0.939111
0.9222
0.905882
0.890132
0.874927
0.860243
0.846059
0.832354
0.819109
0.806307
0.793932
0.781972
0.770419
0.759265
0.748512
0.738165
0.729868
0.723582
0.717648
0.712057
0.7068
0.701871
0.697264
0.692973
0.688989
0.685304
0.681909
0.678794
0.675947
0.673356
0.671008
0.668891
0.666989
0.665288
0.663774
0.662431
0.661247
0.660207
0.659296
0.65847
0.657574
3.23861
3.04387
2.95748
2.85109
2.7622
2.6759
2.59447
2.51641
2.44161
2.36971
2.30056
2.234
2.16992
2.10821
2.04876
1.99149
1.93632
1.88316
1.83195
1.7826
1.73506
1.68925
1.64511
1.60258
1.5616
1.52212
1.48407
1.44741
1.41209
1.37806
1.34527
1.31367
1.28323
1.25389
1.22562
1.19839
1.17214
1.14685
1.12249
1.09901
1.07638
1.05458
1.03357
1.01332
0.993807
0.975
0.956875
0.939404
0.922563
0.906329
0.890679
0.875591
0.861044
0.847019
0.833497
0.820463
0.807901
0.795799
0.784147
0.77294
0.762173
0.751849
0.741972
0.734105
0.728172
0.722597
0.717365
0.712466
0.707891
0.703631
0.699674
0.696009
0.692623
0.689506
0.686642
0.68402
0.681626
0.679444
0.677462
0.675665
0.674039
0.672571
0.671248
0.670057
0.668986
0.668023
0.667153
0.666357
3.23861
3.04399
2.95754
2.85111
2.76221
2.6759
2.59448
2.51642
2.44161
2.36971
2.30056
2.23401
2.16992
2.10821
2.04876
1.99149
1.93632
1.88316
1.83195
1.7826
1.73506
1.68925
1.64511
1.60258
1.5616
1.52212
1.48407
1.44741
1.41209
1.37806
1.34527
1.31367
1.28323
1.2539
1.22563
1.1984
1.17216
1.14688
1.12252
1.09905
1.07643
1.05465
1.03366
1.01344
0.993958
0.975193
0.957118
0.939708
0.922941
0.906794
0.891247
0.87628
0.861874
0.848011
0.834677
0.821856
0.809535
0.797705
0.786357
0.775485
0.765086
0.755162
0.745715
0.738229
0.732605
0.727333
0.722399
0.71779
0.713494
0.709499
0.70579
0.702354
0.699176
0.696243
0.69354
0.691054
0.68877
0.686675
0.684756
0.682998
0.68139
0.679921
0.678577
0.677349
0.676226
0.675198
0.674269
0.673499
3.23842
3.04346
2.95751
2.85098
2.76222
2.67587
2.59447
2.51641
2.4416
2.36971
2.30056
2.234
2.16992
2.10821
2.04876
1.99149
1.93632
1.88316
1.83195
1.7826
1.73506
1.68925
1.64511
1.60258
1.5616
1.52212
1.48407
1.44742
1.41209
1.37806
1.34527
1.31368
1.28323
1.2539
1.22564
1.19841
1.17217
1.1469
1.12254
1.09908
1.07648
1.05472
1.03375
1.01355
0.994104
0.975378
0.957351
0.94
0.923303
0.907239
0.89179
0.876938
0.862665
0.848956
0.835797
0.823175
0.811078
0.799497
0.788424
0.777853
0.767779
0.758201
0.749118
0.741946
0.736571
0.73154
0.726836
0.722447
0.718357
0.714552
0.711016
0.707733
0.70469
0.701871
0.699263
0.69685
0.694621
0.692561
0.690659
0.688902
0.687279
0.68578
0.684395
0.683114
0.681929
0.680831
0.679834
0.679038
3.23816
3.04231
2.95743
2.8507
2.76221
2.67581
2.59445
2.51639
2.44159
2.3697
2.30055
2.234
2.16992
2.10821
2.04876
1.99149
1.93632
1.88316
1.83195
1.7826
1.73506
1.68925
1.64511
1.60258
1.5616
1.52212
1.48407
1.44742
1.4121
1.37806
1.34527
1.31368
1.28324
1.25391
1.22565
1.19842
1.17219
1.14691
1.12257
1.09912
1.07653
1.05477
1.03382
1.01365
0.994232
0.975541
0.957557
0.940257
0.923621
0.90763
0.892267
0.877515
0.863359
0.849783
0.836776
0.824325
0.81242
0.80105
0.790207
0.779885
0.770076
0.760777
0.75198
0.745052
0.739865
0.735013
0.730479
0.726247
0.722301
0.718625
0.715203
0.712019
0.70906
0.706309
0.703754
0.701381
0.699177
0.697131
0.695231
0.693466
0.691827
0.690303
0.688887
0.68757
0.686342
0.685198
0.684158
0.683331
3.23805
3.04078
2.9574
2.85037
2.76222
2.67574
2.59444
2.51637
2.44159
2.36969
2.30055
2.234
2.16992
2.1082
2.04876
1.99149
1.93632
1.88316
1.83195
1.7826
1.73506
1.68925
1.64511
1.60258
1.5616
1.52212
1.48407
1.44742
1.4121
1.37806
1.34527
1.31368
1.28324
1.25391
1.22565
1.19842
1.1722
1.14693
1.12259
1.09914
1.07656
1.05482
1.03388
1.01372
0.994325
0.97566
0.957706
0.940443
0.923851
0.907913
0.892612
0.877932
0.863859
0.850379
0.837479
0.825149
0.813377
0.802154
0.79147
0.781317
0.771686
0.76257
0.753959
0.747184
0.742115
0.737373
0.732939
0.728797
0.724932
0.721327
0.717965
0.71483
0.711908
0.709185
0.706646
0.704279
0.702071
0.700012
0.698089
0.696294
0.694616
0.693047
0.691578
0.690202
0.688909
0.687697
0.686593
0.685729
3.23812
3.03934
2.9574
2.85007
2.76224
2.67568
2.59443
2.51636
2.44158
2.36969
2.30055
2.234
2.16992
2.1082
2.04876
1.99149
1.93632
1.88316
1.83195
1.7826
1.73506
1.68925
1.64511
1.60258
1.5616
1.52212
1.48407
1.44742
1.4121
1.37806
1.34527
1.31368
1.28324
1.25391
1.22565
1.19843
1.1722
1.14694
1.1226
1.09916
1.07658
1.05484
1.03391
1.01377
0.994382
0.975731
0.957796
0.940556
0.923991
0.908085
0.892821
0.878185
0.864161
0.850738
0.837903
0.825645
0.813952
0.802815
0.792224
0.782169
0.772639
0.763627
0.755119
0.748428
0.743421
0.738735
0.734353
0.730258
0.726434
0.722863
0.719529
0.716417
0.713511
0.710799
0.708266
0.7059
0.703691
0.701626
0.699696
0.697891
0.696203
0.694623
0.693144
0.691759
0.690457
0.689236
0.688139
0.68732
3.23835
3.03813
2.9574
2.84985
2.76225
2.67564
2.59442
2.51635
2.44158
2.36968
2.30055
2.234
2.16992
2.1082
2.04876
1.99149
1.93632
1.88316
1.83195
1.7826
1.73506
1.68925
1.64511
1.60258
1.5616
1.52212
1.48407
1.44742
1.4121
1.37806
1.34527
1.31368
1.28324
1.25391
1.22565
1.19843
1.17221
1.14694
1.1226
1.09917
1.07659
1.05486
1.03393
1.01379
0.994414
0.975772
0.957848
0.94062
0.924071
0.908183
0.89294
0.878328
0.864333
0.850942
0.838143
0.825924
0.814276
0.803187
0.792646
0.782644
0.773169
0.764212
0.755758
0.74911
0.744133
0.739475
0.735118
0.731046
0.72724
0.723684
0.720361
0.717256
0.714355
0.711643
0.709108
0.706737
0.70452
0.702444
0.700502
0.698682
0.696977
0.695378
0.693879
0.692471
0.691145
0.6899
0.688779
0.687929
3.2387
3.0372
2.95739
2.8497
2.76226
2.67561
2.59442
2.51634
2.44157
2.36968