/*--------------------------------*- C++ -*----------------------------------*\
| =========                 |                                                 |
| \\      /  F ield         | OpenFOAM: The Open Source CFD Toolbox           |
|  \\    /   O peration     | Version:  2506                                  |
|   \\  /    A nd           | Website:  www.openfoam.com                      |
|    \\/     M anipulation  |                                                 |
\*---------------------------------------------------------------------------*/
FoamFile
{
    version     2.0;
    format      ascii;
    arch        "LSB;label=32;scalar=64";
    class       volScalarField;
    location    "1000";
    object      p;
}
// * * * * * * * * * * * * * * * * * * * * * * * * * * * * * * * * * * * * * //

dimensions      [0 2 -2 0 0 0 0];

internalField   nonuniform List<scalar> 
20540
(
1495.84
1365.23
1495.83
1365.22
1495.82
1365.2
1495.82
1365.18
1495.8
1365.16
1495.79
1365.14
1495.77
1365.1
1495.75
1365.07
1495.72
1365.02
1495.68
1364.97
1495.64
1364.9
1495.58
1364.82
1495.51
1364.72
1495.43
1364.6
1495.33
1364.44
1495.21
1364.25
1495.06
1364.02
1494.87
1363.73
1494.65
1363.36
1494.38
1362.91
1494.05
1362.35
1493.66
1361.67
1493.19
1360.85
1492.63
1359.87
1491.98
1358.73
1491.23
1357.42
1490.39
1355.98
1489.49
1354.44
1488.58
1352.87
1487.73
1351.37
1487.13
1350.27
1486.84
1349.66
1486.86
1349.51
1487.19
1349.8
1487.82
1350.56
1488.67
1351.7
1489.59
1352.97
1490.48
1354.26
1491.32
1355.49
1492.07
1356.62
1492.74
1357.63
1493.31
1358.51
1493.8
1359.26
1494.21
1359.89
1494.56
1360.41
1494.85
1360.84
1495.09
1361.19
1495.29
1361.47
1495.45
1361.7
1495.59
1361.89
1495.71
1362.04
1495.8
1362.17
1495.88
1362.27
1495.94
1362.35
1495.99
1362.42
1496.03
1362.47
1496.07
1362.52
1496.1
1362.56
1496.12
1362.59
1496.14
1362.62
1496.15
1362.64
1496.16
1362.66
1496.17
1362.68
1496.18
1362.7
1496.18
1362.71
1216.55
1037.44
981.401
923.804
870.619
823.069
779.957
740.131
703.178
668.734
636.481
606.175
577.619
550.647
525.12
500.919
477.94
456.093
435.298
415.484
396.588
378.553
361.326
344.86
329.112
314.043
299.615
285.795
272.55
259.852
247.672
235.985
224.766
213.991
203.639
193.687
184.116
174.905
166.036
157.49
149.25
141.297
133.616
126.188
118.998
112.031
105.27
98.7004
92.3075
86.077
79.9948
74.0472
68.2211
62.5034
56.8819
51.3442
45.879
40.4743
35.1202
29.8039
24.5178
19.2459
13.9844
9.57958
6.12816
2.75994
-0.534157
-3.75536
-6.90766
-9.99386
-13.0172
-15.9809
-18.8884
-21.7431
-24.5488
-27.31
-30.0306
-32.7174
-35.3726
-38.012
-40.6221
-43.2642
-45.8189
-48.5985
-50.8253
-54.1935
-53.8319
-67.0395
1216.55
1037.45
981.404
923.805
870.62
823.069
779.957
740.132
703.178
668.734
636.482
606.176
577.619
550.647
525.12
500.919
477.94
456.093
435.298
415.484
396.588
378.553
361.326
344.86
329.113
314.043
299.615
285.795
272.55
259.852
247.673
235.985
224.766
213.991
203.639
193.687
184.116
174.905
166.036
157.49
149.25
141.297
133.616
126.188
118.998
112.031
105.27
98.7002
92.3074
86.0768
79.9946
74.0469
68.2207
62.503
56.8814
51.3436
45.8784
40.4736
35.1194
29.803
24.5168
19.2447
13.983
9.57808
6.12654
2.75818
-0.536073
-3.75744
-6.90992
-9.99632
-13.0199
-15.9839
-18.8916
-21.7466
-24.5527
-27.3143
-30.0354
-32.7227
-35.3787
-38.0191
-40.6303
-43.2744
-45.8309
-48.6158
-50.8474
-54.2508
-53.9991
-67.08
1216.54
1037.45
981.408
923.807
870.621
823.07
779.958
740.133
703.179
668.735
636.482
606.176
577.619
550.647
525.12
500.919
477.94
456.093
435.298
415.484
396.589
378.553
361.326
344.86
329.113
314.043
299.615
285.795
272.551
259.852
247.673
235.986
224.766
213.991
203.639
193.687
184.116
174.905
166.036
157.49
149.25
141.297
133.616
126.188
118.998
112.031
105.27
98.7001
92.3072
86.0766
79.9943
74.0466
68.2203
62.5025
56.8808
51.3429
45.8776
40.4726
35.1183
29.8017
24.5154
19.2431
13.9812
9.57605
6.12433
2.75578
-0.538674
-3.76026
-6.91299
-9.99966
-13.0235
-15.9878
-18.8959
-21.7514
-24.558
-27.3201
-30.0419
-32.7301
-35.387
-38.0287
-40.6415
-43.2881
-45.8473
-48.6394
-50.8777
-54.3282
-54.2207
-67.0987
1216.52
1037.46
981.412
923.809
870.622
823.071
779.959
740.133
703.179
668.735
636.483
606.176
577.62
550.648
525.121
500.919
477.94
456.093
435.298
415.485
396.589
378.553
361.326
344.861
329.113
314.043
299.616
285.795
272.551
259.852
247.673
235.986
224.766
213.992
203.639
193.687
184.116
174.905
166.036
157.491
149.25
141.297
133.616
126.188
118.998
112.031
105.269
98.6999
92.3069
86.0763
79.9939
74.0461
68.2198
62.5018
56.8801
51.3421
45.8766
40.4715
35.117
29.8002
24.5137
19.2412
13.9791
9.57365
6.12173
2.75297
-0.541732
-3.76358
-6.9166
-10.0036
-13.0278
-15.9925
-18.901
-21.757
-24.5641
-27.327
-30.0495
-32.7387
-35.3968
-38.04
-40.6547
-43.3042
-45.8665
-48.667
-50.9139
-54.4169
-54.4713
-67.1053
1216.51
1037.48
981.418
923.811
870.624
823.073
779.96
740.134
703.18
668.736
636.483
606.177
577.62
550.648
525.121
500.92
477.941
456.094
435.299
415.485
396.589
378.553
361.327
344.861
329.113
314.044
299.616
285.795
272.551
259.853
247.673
235.986
224.766
213.992
203.639
193.687
184.116
174.905
166.036
157.491
149.25
141.297
133.616
126.188
118.998
112.03
105.269
98.6996
92.3066
86.0759
79.9934
74.0456
68.2191
62.5011
56.8792
51.341
45.8754
40.4701
35.1155
29.7985
24.5117
19.2389
13.9765
9.57081
6.11865
2.74963
-0.545363
-3.76752
-6.92088
-10.0082
-13.0329
-15.998
-18.9071
-21.7636
-24.5714
-27.3351
-30.0586
-32.7488
-35.4083
-38.0534
-40.6702
-43.3233
-45.8894
-48.6995
-50.9578
-54.5187
-54.755
-67.1047
1216.5
1037.49
981.425
923.814
870.626
823.074
779.961
740.135
703.181
668.737
636.484
606.178
577.621
550.649
525.122
500.92
477.941
456.094
435.299
415.485
396.589
378.554
361.327
344.861
329.113
314.044
299.616
285.796
272.551
259.853
247.673
235.986
224.767
213.992
203.639
193.687
184.116
174.905
166.036
157.491
149.25
141.297
133.616
126.188
118.998
112.03
105.269
98.6994
92.3063
86.0755
79.9929
74.0449
68.2183
62.5002
56.8781
51.3398
45.874
40.4685
35.1137
29.7964
24.5093
19.2362
13.9734
9.56741
6.11496
2.74562
-0.549716
-3.77225
-6.92601
-10.0138
-13.039
-16.0047
-18.9143
-21.7716
-24.5802
-27.3448
-30.0694
-32.761
-35.4222
-38.0694
-40.6889
-43.346
-45.9169
-48.7382
-51.0116
-54.6359
-55.0762
-67.0969
1216.48
1037.51
981.433
923.817
870.629
823.076
779.963
740.137
703.182
668.738
636.485
606.178
577.622
550.649
525.122
500.921
477.942
456.094
435.299
415.486
396.59
378.554
361.327
344.861
329.114
314.044
299.616
285.796
272.551
259.853
247.673
235.986
224.767
213.992
203.639
193.688
184.116
174.906
166.037
157.491
149.25
141.298
133.616
126.188
118.998
112.03
105.269
98.699
92.3059
86.0749
79.9923
74.0441
68.2174
62.4991
56.8769
51.3384
45.8723
40.4666
35.1115
29.7939
24.5065
19.233
13.9698
9.56332
6.11053
2.74082
-0.554933
-3.77791
-6.93216
-10.0205
-13.0462
-16.0126
-18.923
-21.7811
-24.5907
-27.3564
-30.0823
-32.7756
-35.4387
-38.0885
-40.7111
-43.3731
-45.95
-48.7841
-51.0776
-54.7695
-55.4348
-67.0802
1216.46
1037.53
981.442
923.821
870.632
823.079
779.965
740.138
703.184
668.739
636.486
606.179
577.622
550.65
525.123
500.921
477.942
456.095
435.3
415.486
396.59
378.555
361.328
344.862
329.114
314.045
299.617
285.796
272.552
259.853
247.674
235.987
224.767
213.992
203.64
193.688
184.116
174.906
166.037
157.491
149.25
141.298
133.616
126.188
118.998
112.03
105.269
98.6986
92.3054
86.0743
79.9915
74.0432
68.2163
62.4978
56.8754
51.3366
45.8703
40.4643
35.1088
29.7909
24.5031
19.2291
13.9654
9.55844
6.10524
2.73508
-0.561168
-3.78468
-6.93951
-10.0285
-13.0549
-16.0221
-18.9333
-21.7924
-24.6032
-27.3702
-30.0978
-32.7929
-35.4584
-38.1112
-40.7377
-43.4053
-45.9896
-48.8382
-51.158
-54.9196
-55.8273
-67.0512
1216.44
1037.56
981.454
923.826
870.635
823.082
779.967
740.14
703.185
668.741
636.487
606.18
577.623
550.651
525.124
500.922
477.943
456.096
435.301
415.487
396.591
378.555
361.328
344.862
329.115
314.045
299.617
285.797
272.552
259.854
247.674
235.987
224.767
213.993
203.64
193.688
184.117
174.906
166.037
157.491
149.25
141.298
133.616
126.188
118.998
112.03
105.268
98.6982
92.3048
86.0736
79.9906
74.0421
68.215
62.4963
56.8736
51.3345
45.8679
40.4615
35.1057
29.7873
24.499
19.2245
13.9601
9.55262
6.09892
2.72824
-0.568599
-3.79274
-6.94826
-10.038
-13.0653
-16.0333
-18.9456
-21.8059
-24.6181
-27.3867
-30.1161
-32.8135
-35.4817
-38.1381
-40.7691
-43.4432
-46.037
-48.9013
-51.2555
-55.0848
-56.2463
-67.0035
1216.41
1037.59
981.468
923.832
870.639
823.085
779.97
740.143
703.187
668.742
636.489
606.182
577.625
550.652
525.125
500.923
477.944
456.097
435.301
415.488
396.592
378.556
361.329
344.863
329.115
314.046
299.618
285.797
272.553
259.854
247.675
235.987
224.768
213.993
203.64
193.688
184.117
174.906
166.037
157.491
149.251
141.298
133.616
126.188
118.997
112.029
105.268
98.6976
92.3041
86.0727
79.9895
74.0408
68.2135
62.4944
56.8714
51.332
45.865
40.4583
35.1019
29.783
24.4942
19.219
13.9539
9.5457
6.09142
2.72011
-0.577423
-3.80231
-6.95865
-10.0493
-13.0775
-16.0467
-18.9602
-21.8219
-24.6356
-27.4061
-30.1377
-32.8378
-35.5093
-38.1698
-40.8063
-43.4875
-46.0932
-48.974
-51.3724
-55.2617
-56.6794
-66.9246
1216.38
1037.62
981.484
923.839
870.645
823.089
779.973
740.145
703.19
668.745
636.491
606.184
577.626
550.654
525.126
500.924
477.945
456.098
435.302
415.489
396.592
378.557
361.329
344.864
329.116
314.046
299.618
285.798
272.553
259.855
247.675
235.988
224.768
213.993
203.641
193.689
184.117
174.906
166.037
157.491
149.251
141.298
133.616
126.187
118.997
112.029
105.267
98.697
92.3032
86.0716
79.9882
74.0393
68.2116
62.4923
56.8689
51.3291
45.8617
40.4544
35.0975
29.778
24.4885
19.2125
13.9466
9.53752
6.08255
2.71049
-0.587853
-3.81362
-6.97092
-10.0626
-13.092
-16.0625
-18.9774
-21.8407
-24.6563
-27.429
-30.1632
-32.8663
-35.5416
-38.2067
-40.8497
-43.5389
-46.1594
-49.0564
-51.5103
-55.4435
-57.1085
-66.7926
1216.34
1037.66
981.504
923.848
870.651
823.094
779.977
740.149
703.193
668.747
636.493
606.186
577.628
550.655
525.128
500.926
477.946
456.099
435.304
415.49
396.593
378.558
361.33
344.864
329.117
314.047
299.619
285.798
272.554
259.855
247.676
235.988
224.769
213.994
203.641
193.689
184.118
174.907
166.038
157.492
149.251
141.298
133.615
126.187
118.997
112.029
105.267
98.6962
92.3022
86.0704
79.9867
74.0375
68.2095
62.4897
56.8659
51.3256
45.8577
40.4498
35.0923
29.7721
24.4817
19.2049
13.9379
9.5279
6.07212
2.69919
-0.60011
-3.82691
-6.98532
-10.0782
-13.109
-16.0809
-18.9976
-21.8628
-24.6805
-27.4556
-30.1928
-32.8994
-35.579
-38.2495
-40.9
-43.5977
-46.2361
-49.1477
-51.6686
-55.6188
-57.509
-66.5732
1216.29
1037.71
981.527
923.858
870.658
823.1
779.982
740.153
703.196
668.75
636.495
606.188
577.63
550.657
525.129
500.927
477.948
456.1
435.305
415.491
396.595
378.559
361.331
344.866
329.118
314.048
299.62
285.799
272.555
259.856
247.676
235.989
224.77
213.995
203.642
193.69
184.118
174.907
166.038
157.492
149.251
141.298
133.615
126.187
118.997
112.028
105.266
98.6953
92.3011
86.069
79.9849
74.0353
68.2069
62.4867
56.8624
51.3216
45.853
40.4444
35.0862
29.7651
24.4738
19.196
13.9278
9.51666
6.05994
2.68599
-0.614401
-3.84239
-7.00209
-10.0964
-13.1287
-16.1023
-19.0209
-21.8882
-24.7084
-27.4864
-30.2268
-32.9374
-35.622
-38.2981
-40.9572
-43.6636
-46.3229
-49.2454
-51.8429
-55.7698
-57.849
-66.2204
1216.22
1037.77
981.554
923.871
870.667
823.108
779.988
740.158
703.2
668.754
636.499
606.191
577.633
550.66
525.132
500.929
477.95
456.102
435.307
415.492
396.596
378.56
361.333
344.867
329.119
314.049
299.621
285.8
272.556
259.857
247.677
235.99
224.77
213.995
203.642
193.69
184.119
174.908
166.038
157.492
149.251
141.298
133.616
126.187
118.996
112.028
105.265
98.6943
92.2998
86.0673
79.9829
74.0329
68.204
62.4833
56.8584
51.3169
45.8476
40.4382
35.0791
29.7571
24.4647
19.1856
13.9161
9.50367
6.04586
2.67076
-0.630888
-3.86023
-7.0214
-10.1173
-13.1513
-16.1269
-19.0476
-21.9173
-24.7403
-27.5213
-30.2654
-32.9802
-35.6701
-38.3523
-41.0207
-43.7351
-46.4175
-49.3439
-52.0214
-55.8708
-58.0887
-65.6821
1216.14
1037.85
981.585
923.886
870.678
823.116
779.995
740.163
703.205
668.758
636.502
606.194
577.636
550.662
525.134
500.932
477.952
456.104
435.308
415.494
396.598
378.562
361.334
344.868
329.12
314.05
299.622
285.802
272.557
259.858
247.678
235.991
224.771
213.996
203.643
193.691
184.119
174.908
166.039
157.493
149.252
141.298
133.616
126.187
118.996
112.027
105.264
98.6932
92.2983
86.0654
79.9806
74.0301
68.2007
62.4793
56.8538
51.3115
45.8414
40.4312
35.071
29.7479
24.4543
19.1738
13.9027
9.48886
6.02981
2.65341
-0.649625
-3.88049
-7.04328
-10.1409
-13.1769
-16.1546
-19.0776
-21.9499
-24.7757
-27.5601
-30.308
-33.0271
-35.7224
-38.4104
-41.0881
-43.8088
-46.5134
-49.4332
-52.1816
-55.8876
-58.1789
-64.8968
1216.04
1037.93
981.622
923.905
870.69
823.126
780.003
740.17
703.211
668.763
636.507
606.198
577.64
550.666
525.137
500.935
477.954
456.106
435.311
415.496
396.6
378.564
361.336
344.87
329.122
314.052
299.624
285.803
272.558
259.86
247.68
235.992
224.772
213.997
203.644
193.692
184.12
174.909
166.04
157.493
149.252
141.299
133.616
126.187
118.996
112.026
105.264
98.6919
92.2966
86.0633
79.978
74.0269
68.1969
62.4749
56.8486
51.3055
45.8345
40.4232
35.0619
29.7375
24.4426
19.1606
13.8878
9.47233
6.01191
2.63408
-0.670453
-3.90296
-7.06749
-10.167
-13.205
-16.1849
-19.1103
-21.9852
-24.8139
-27.6015
-30.353
-33.0761
-35.7763
-38.4688
-41.1541
-43.8771
-46.5981
-49.4953
-52.2861
-55.777
-58.0597
-63.8108
1215.92
1038.04
981.664
923.927
870.705
823.138
780.013
740.178
703.218
668.769
636.512
606.203
577.644
550.67
525.141
500.938
477.958
456.109
435.313
415.499
396.602
378.566
361.338
344.872
329.124
314.054
299.625
285.805
272.56
259.861
247.681
235.994
224.774
213.999
203.645
193.693
184.121
174.91
166.04
157.494
149.253
141.299
133.616
126.187
118.995
112.026
105.263
98.6906
92.2949
86.0611
79.9752
74.0235
68.1928
62.4701
56.8429
51.2989
45.8269
40.4145
35.052
29.7263
24.4298
19.1463
13.8716
9.45444
5.99257
2.61324
-0.69281
-3.92699
-7.09328
-10.1947
-13.2346
-16.2166
-19.1442
-22.0215
-24.8528
-27.6429
-30.3973
-33.123
-35.8262
-38.5203
-41.2085
-43.926
-46.6491
-49.4998
-52.2809
-55.4872
-57.6644
-62.4072
1215.77
1038.17
981.711
923.955
870.723
823.153
780.025
740.188
703.226
668.776
636.519
606.209
577.649
550.674
525.145
500.942
477.961
456.113
435.317
415.502
396.605
378.569
361.341
344.874
329.126
314.056
299.628
285.807
272.562
259.863
247.683
235.995
224.775
214
203.647
193.695
184.123
174.911
166.041
157.495
149.253
141.299
133.616
126.187
118.995
112.025
105.262
98.6893
92.2931
86.0588
79.9724
74.0201
68.1886
62.4651
56.837
51.2921
45.819
40.4055
35.0417
29.7146
24.4166
19.1314
13.855
9.43611
5.97281
2.59204
-0.715387
-3.95111
-7.11894
-10.2219
-13.2635
-16.2471
-19.1763
-22.0552
-24.8878
-27.679
-30.4341
-33.1596
-35.8615
-38.5511
-41.2327
-43.9305
-46.63
-49.3992
-52.0965
-54.9594
-56.9296
-60.7055
1215.58
1038.35
981.764
923.989
870.744
823.169
780.038
740.199
703.236
668.785
636.526
606.215
577.655
550.68
525.15
500.947
477.966
456.117
435.32
415.505
396.608
378.572
361.344
344.877
329.129
314.059
299.63
285.809
272.564
259.865
247.685
235.997
224.777
214.002
203.649
193.696
184.124
174.913
166.043
157.496
149.254
141.3
133.617
126.187
118.995
112.025
105.261
98.6882
92.2916
86.0568
79.9698
74.0168
68.1847
62.4604
56.8315
51.2856
45.8115
40.3968
35.0319
29.7035
24.4041
19.1175
13.8395
9.4192
5.9547
2.5728
-0.735559
-3.97233
-7.14109
-10.2449
-13.2872
-16.2712
-19.2006
-22.079
-24.9106
-27.6998
-30.4512
-33.1707
-35.8633
-38.537
-41.1948
-43.8491
-46.4858
-49.1258
-51.6531
-54.1302
-55.8073
-58.7409
1215.37
1038.58
981.822
924.031
870.769
823.189
780.054
740.212
703.247
668.795
636.535
606.223
577.662
550.686
525.156
500.952
477.97
456.121
435.325
415.509
396.612
378.575
361.347
344.88
329.132
314.062
299.633
285.812
272.566
259.868
247.687
235.999
224.779
214.004
203.651
193.698
184.126
174.914
166.044
157.497
149.255
141.301
133.618
126.188
118.996
112.025
105.261
98.6877
92.2907
86.0555
79.968
74.0145
68.1818
62.4568
56.8272
51.2806
45.8057
40.3902
35.0243
29.695
24.3947
19.1072
13.8284
9.40733
5.94223
2.55995
-0.748323
-3.98501
-7.15337
-10.2564
-13.2974
-16.2794
-19.2058
-22.0801
-24.9058
-27.6867
-30.4266
-33.1294
-35.7984
-38.4369
-41.0439
-43.6187
-46.1403
-48.5927
-50.8672
-52.9377
-54.2719
-56.5356
1215.13
1038.9
981.885
924.086
870.798
823.211
780.073
740.228
703.26
668.806
636.545
606.232
577.67
550.694
525.163
500.958
477.976
456.127
435.33
415.514
396.616
378.579
361.351
344.884
329.135
314.065
299.636
285.815
272.569
259.87
247.69
236.002
224.782
214.006
203.653
193.7
184.128
174.916
166.046
157.499
149.257
141.303
133.619
126.189
118.997
112.026
105.262
98.6885
92.2913
86.0559
79.9681
74.0144
68.1814
62.4561
56.8263
51.2793
45.8041
40.3884
35.0224
29.693
24.3927
19.1055
13.8274
9.40714
5.94274
2.56169
-0.744512
-3.97885
-7.14415
-10.2433
-13.2791
-16.2546
-19.1725
-22.0357
-24.8469
-27.6085
-30.3227
-32.9908
-35.6126
-38.186
-40.7029
-43.1499
-45.4953
-47.6997
-49.6586
-51.3263
-52.3119
-54.0791
1214.88
1039.35
981.956
924.159
870.834
823.238
780.095
740.246
703.276
668.819
636.557
606.242
577.679
550.702
525.17
500.965
477.983
456.133
435.335
415.519
396.622
378.584
361.356
344.888
329.139
314.069
299.64
285.818
272.573
259.874
247.693
236.005
224.785
214.009
203.656
193.703
184.131
174.919
166.049
157.502
149.26
141.306
133.622
126.192
119
112.029
105.265
98.6918
92.2948
86.0596
79.9721
74.0187
68.1861
62.4613
56.832
51.2858
45.8114
40.3967
35.032
29.7042
24.4059
19.1214
13.847
9.43058
5.96942
2.59264
-0.707789
-3.93553
-7.0929
-10.1823
-13.2063
-16.167
-19.0666
-21.9067
-24.6887
-27.4131
-30.0793
-32.685
-35.2251
-37.6906
-40.0656
-42.3266
-44.4346
-46.3413
-47.9525
-49.246
-49.9125
-51.3245
1214.64
1039.99
982.038
924.26
870.877
823.269
780.121
740.268
703.294
668.835
636.57
606.254
577.69
550.712
525.179
500.973
477.99
456.14
435.342
415.526
396.627
378.59
361.361
344.893
329.144
314.073
299.644
285.823
272.577
259.878
247.697
236.009
224.789
214.013
203.659
193.707
184.134
174.923
166.053
157.506
149.264
141.31
133.627
126.197
119.006
112.036
105.272
98.6998
92.3038
86.0697
79.9835
74.0316
68.2007
62.4779
56.8508
51.3072
45.8358
40.4246
35.0639
29.741
24.4485
19.1712
13.9058
9.49866
6.04545
2.6785
-0.609615
-3.82325
-6.96409
-10.0338
-13.034
-15.9661
-18.8308
-21.6282
-24.3575
-27.0165
-29.601
-32.1044
-34.5162
-36.8214
-38.9977
-41.0164
-42.8358
-44.4154
-45.6772
-46.6437
-47.0376
-48.1952
1214.48
1040.88
982.139
924.406
870.935
823.308
780.154
740.294
703.315
668.853
636.586
606.269
577.703
550.723
525.19
500.983
477.999
456.148
435.349
415.533
396.634
378.596
361.367
344.899
329.149
314.078
299.649
285.827
272.581
259.882
247.701
236.013
224.793
214.017
203.664
193.711
184.139
174.928
166.058
157.512
149.271
141.318
133.635
126.207
119.017
112.048
105.287
98.7164
92.3229
86.0916
80.0087
74.0604
68.2337
62.5156
56.8939
51.3563
45.8918
40.4886
35.137
29.8249
24.545
19.2829
14.036
9.64763
6.21081
2.86347
-0.401111
-3.58782
-6.69754
-9.73074
-12.6879
-15.5688
-18.3726
-21.0969
-23.7382
-26.2911
-28.7477
-31.0971
-33.3246
-35.4115
-37.3336
-39.064
-40.5669
-41.819
-42.7564
-43.4554
-43.6113
-44.6007
1214.43
1042.09
982.274
924.619
871.014
823.357
780.196
740.328
703.342
668.876
636.606
606.286
577.718
550.737
525.202
500.994
478.009
456.157
435.358
415.541
396.642
378.603
361.373
344.905
329.156
314.084
299.655
285.833
272.587
259.887
247.707
236.018
224.798
214.023
203.67
193.718
184.146
174.936
166.067
157.522
149.282
141.331
133.65
126.224
119.037
112.072
105.314
98.7485
92.3602
86.1348
80.0585
74.1178
68.2996
62.5911
56.9803
51.455
46.0045
40.6171
35.2838
29.9927
24.7372
19.5042
14.2922
9.93883
6.53305
3.22185
-0.000648938
-3.13947
-6.19447
-9.16447
-12.0483
-14.8438
-17.5479
-20.1557
-22.6609
-25.0549
-27.3271
-29.4642
-31.4501
-33.267
-34.8938
-36.3118
-37.4946
-38.4409
-39.0923
-39.5806
-39.5303
-40.4441
1214.56
1043.67
982.46
924.931
871.129
823.424
780.254
740.373
703.377
668.906
636.631
606.308
577.737
550.754
525.217
501.008
478.022
456.169
435.369
415.551
396.651
378.612
361.382
344.913
329.163
314.091
299.662
285.839
272.593
259.894
247.713
236.025
224.805
214.03
203.678
193.727
184.157
174.947
166.081
157.538
149.301
141.353
133.676
126.255
119.073
112.115
105.365
98.8076
92.4291
86.2149
80.1514
74.225
68.423
62.7327
57.1424
51.6403
46.2158
40.858
35.5583
30.3058
25.095
19.9143
14.7644
10.473
7.12245
3.87408
0.723017
-2.33533
-5.2995
-8.16642
-10.9329
-13.5949
-16.147
-18.5823
-20.8925
-23.0676
-25.0963
-26.9662
-28.6637
-30.176
-31.4886
-32.5945
-33.4758
-34.1528
-34.562
-34.8868
-34.6722
-35.5106
1214.91
1045.61
982.712
925.366
871.297
823.518
780.335
740.436
703.426
668.946
636.666
606.337
577.763
550.777
525.238
501.026
478.039
456.184
435.383
415.564
396.663
378.623
361.392
344.923
329.173
314.1
299.67
285.848
272.602
259.903
247.722
236.035
224.815
214.041
203.69
193.741
184.173
174.966
166.103
157.564
149.333
141.391
133.722
126.309
119.137
112.191
105.454
98.9125
92.5518
86.3579
80.3173
74.4169
68.644
62.9865
57.4329
51.9721
46.594
41.2886
36.0482
30.8634
25.7302
20.6396
15.5951
11.4081
8.15037
5.00537
1.96927
-0.961429
-3.78383
-6.49312
-9.08444
-11.5523
-13.8901
-16.0902
-18.1444
-20.0439
-21.7797
-23.3433
-24.7264
-25.9236
-26.9281
-27.7438
-28.358
-28.8087
-29.0214
-29.2187
-28.8864
-29.6214
1215.44
1047.86
983.031
925.93
871.531
823.647
780.447
740.524
703.494
669.002
636.713
606.378
577.798
550.808
525.265
501.051
478.061
456.205
435.402
415.581
396.679
378.638
361.406
344.937
329.185
314.113
299.682
285.86
272.614
259.915
247.735
236.048
224.83
214.058
203.709
193.763
184.198
174.997
166.14
157.608
149.385
141.454
133.798
126.4
119.246
112.32
105.607
99.0922
92.7625
86.6037
80.6028
74.7472
69.0246
63.4235
57.933
52.5429
47.244
42.0276
36.8873
31.8159
26.8117
21.8693
16.9957
12.9762
9.86627
6.88216
4.02101
1.28084
-1.33435
-3.81893
-6.1675
-8.37455
-10.4341
-12.3402
-14.0869
-15.6689
-17.0817
-18.3225
-19.3889
-20.2829
-21.0033
-21.5625
-21.9499
-22.2142
-22.2731
-22.3635
-21.9649
-22.545
1216.08
1050.26
983.397
926.588
871.826
823.809
780.591
740.638
703.583
669.077
636.778
606.433
577.846
550.85
525.303
501.085
478.092
456.233
435.427
415.605
396.701
378.659
361.426
344.955
329.203
314.13
299.699
285.876
272.63
259.932
247.753
236.068
224.852
214.083
203.738
193.796
184.239
175.045
166.198
157.679
149.471
141.557
133.922
126.549
119.424
112.532
105.858
99.3884
93.1099
87.0092
81.0741
75.2923
69.6527
64.1444
58.7576
53.483
48.3131
43.2407
38.2615
33.371
28.5704
23.8588
19.2465
15.4772
12.5851
9.83325
7.2187
4.74071
2.40331
0.211324
-1.83116
-3.72053
-5.45349
-7.02742
-8.44047
-9.69215
-10.7829
-11.7154
-12.4924
-13.1209
-13.6036
-13.957
-14.1721
-14.2986
-14.2591
-14.2665
-13.873
-14.2524
1216.72
1052.56
983.781
927.255
872.147
823.987
780.75
740.767
703.685
669.164
636.852
606.498
577.903
550.901
525.349
501.126
478.129
456.267
435.459
415.634
396.728
378.684
361.45
344.978
329.225
314.151
299.72
285.898
272.652
259.955
247.777
236.095
224.883
214.118
203.779
193.846
184.299
175.118
166.287
157.787
149.602
141.717
134.115
126.782
119.703
112.864
106.252
99.8535
93.6559
87.6471
81.8156
76.1505
70.6413
65.2787
60.054
54.9597
49.9897
45.1392
40.4061
35.7892
31.2924
26.92
22.6854
19.2711
16.6797
14.2388
11.946
9.80115
7.80645
5.96401
4.27497
2.73967
1.35775
0.127917
-0.952044
-1.8856
-2.67695
-3.33198
-3.85629
-4.25882
-4.54425
-4.72787
-4.80464
-4.81308
-4.69922
-4.61117
-4.25184
-4.36476
1217.14
1054.2
984.102
927.756
872.403
824.137
780.885
740.88
703.777
669.242
636.921
606.558
577.957
550.949
525.392
501.165
478.165
456.3
435.489
415.662
396.755
378.709
361.473
345
329.246
314.172
299.741
285.919
272.674
259.978
247.804
236.125
224.917
214.159
203.829
193.906
184.372
175.209
166.398
157.923
149.77
141.921
134.363
127.081
120.062
113.293
106.762
100.456
94.3636
88.4744
82.7777
77.2638
71.9237
66.7491
61.7329
56.8691
52.1532
47.5821
43.1555
38.8747
34.7448
30.7735
26.9733
23.9544
21.6899
19.5783
17.6165
15.8039
14.1401
12.624
11.2533
10.0253
8.9365
7.98247
7.15814
6.45752
5.87421
5.40081
5.03023
4.75367
4.56485
4.45211
4.41465
4.42979
4.52122
4.6147
4.84834
4.88089
1217.3
1055.04
984.296
928.009
872.538
824.217
780.956
740.938
703.824
669.283
636.957
606.59
577.985
550.974
525.415
501.186
478.184
456.318
435.506
415.678
396.769
378.723
361.487
345.013
329.259
314.185
299.754
285.933
272.69
259.996
247.824
236.149
224.948
214.197
203.876
193.965
184.445
175.3
166.512
158.065
149.944
142.135
134.624
127.398
120.444
113.751
107.307
101.1
95.122
89.3616
83.8099
78.4584
73.2992
68.3253
63.5307
58.9106
54.4614
50.1814
46.0706
42.1315
38.3688
34.7906
31.406
28.7548
26.7891
24.9729
23.3011
21.7725
20.3848
19.1341
18.0158
17.0252
16.1568
15.4048
14.7626
14.2235
13.7804
13.426
13.1531
12.954
12.8219
12.7489
12.7299
12.7552
12.8251
12.9204
13.0651
13.1913
1217.21
1055.13
984.362
928.03
872.554
824.228
780.963
740.942
703.828
669.286
636.959
606.592
577.987
550.976
525.416
501.188
478.186
456.319
435.507
415.679
396.77
378.724
361.488
345.015
329.261
314.188
299.758
285.938
272.697
260.006
247.837
236.167
224.971
214.228
203.916
194.018
184.514
175.388
166.623
158.205
150.118
142.35
134.888
127.719
120.833
114.218
107.863
101.76
95.8987
90.2708
84.8681
79.6831
74.709
69.9398
65.3703
60.9964
56.8151
52.8249
49.0256
45.4196
42.0095
38.8027
35.8039
33.4868
31.7868
30.2274
28.8028
27.5114
26.3491
25.31
24.3881
23.5772
22.871
22.2629
21.7462
21.314
20.9595
20.6759
20.4565
20.2951
20.1852
20.1219
20.0976
20.1115
20.1498
20.2279
20.2996
20.4639
1216.87
1054.46
984.299
927.818
872.451
824.17
780.905
740.893
703.787
669.25
636.927
606.564
577.962
550.953
525.396
501.169
478.168
456.303
435.492
415.665
396.758
378.712
361.477
345.005
329.253
314.18
299.752
285.934
272.695
260.006
247.842
236.176
224.986
214.25
203.949
194.063
184.574
175.466
166.725
158.334
150.281
142.553
135.138
128.026
121.204
114.664
108.397
102.394
96.6454
91.1453
85.8861
80.8612
76.0645
71.4909
67.1355
62.9947
59.0651
55.3454
51.8341
48.5325
45.4408
42.5639
39.9012
37.8675
36.3888
35.0403
33.8155
32.7124
31.7257
30.8481
30.0727
29.393
28.8023
28.294
27.8614
27.4982
27.1979
26.9546
26.7624
26.6162
26.5101
26.4409
26.4008
26.3932
26.3982
26.4481
26.4629
26.6263
1216.28
1053.02
984.113
927.37
872.232
824.045
780.786
740.793
703.706
669.18
636.866
606.51
577.914
550.91
525.357
501.134
478.136
456.273
435.465
415.64
396.734
378.691
361.457
344.986
329.235
314.165
299.738
285.922
272.686
260
247.839
236.178
224.994
214.266
203.973
194.098
184.624
175.533
166.813
158.447
150.425
142.734
135.363
128.301
121.539
115.068
108.88
102.967
97.3218
91.9377
86.8084
81.9281
77.2915
72.8936
68.7299
64.7966
61.0902
57.6083
54.3481
51.3093
48.4893
45.8907
43.5083
41.707
40.4055
39.2227
38.153
37.194
36.3393
35.581
34.9118
34.3252
33.8147
33.3739
32.9968
32.6775
32.4105
32.1908
32.0133
31.874
31.7678
31.6927
31.6414
31.6187
31.6043
31.6344
31.6205
31.775
1215.52
1050.98
983.856
926.768
871.953
823.891
780.643
740.676
703.613
669.101
636.797
606.45
577.861
550.863
525.315
501.095
478.101
456.241
435.436
415.613
396.709
378.667
361.435
344.966
329.217
314.148
299.723
285.909
272.674
259.991
247.833
236.176
224.996
214.274
203.988
194.122
184.658
175.581
166.877
158.531
150.533
142.869
135.531
128.508
121.791
115.373
109.245
103.401
97.8331
92.5367
87.5054
82.734
78.2174
73.951
69.9301
66.1509
62.609
59.3013
56.2236
53.3741
50.7478
48.3449
46.1564
44.513
43.3301
42.2571
41.2889
40.4227
39.6517
38.9674
38.3628
37.8311
37.3662
36.962
36.6125
36.3126
36.0569
35.8409
35.6599
35.5101
35.387
35.2886
35.2083
35.1511
35.0963
35.0838
35.0139
35.1439
1214.78
1048.81
983.587
926.165
871.689
823.746
780.512
740.57
703.529
669.031
636.737
606.399
577.816
550.823
525.279
501.064
478.072
456.215
435.412
415.591
396.689
378.648
361.418
344.95
329.202
314.134
299.71
285.897
272.664
259.983
247.827
236.172
224.996
214.277
203.996
194.136
184.679
175.611
166.917
158.584
150.6
142.955
135.638
128.64
121.953
115.568
109.479
103.678
98.161
92.9207
87.9521
83.2502
78.8101
74.6272
70.6967
67.0146
63.576
60.3772
57.4129
54.6801
52.172
49.8874
47.8148
46.2641
45.1502
44.141
43.2314
42.4181
41.694
41.0507
40.4811
39.9789
39.538
39.1526
38.8175
38.5277
38.2785
38.0659
37.8858
37.735
37.6098
37.5084
37.4256
37.3653
37.3101
37.2969
37.2287
37.3835
1214.16
1046.76
983.338
925.64
871.476
823.629
780.407
740.487
703.465
668.978
636.692
606.36
577.782
550.794
525.253
501.04
478.051
456.196
435.394
415.574
396.673
378.634
361.404
344.937
329.19
314.123
299.7
285.888
272.657
259.976
247.822
236.169
224.994
214.278
204
194.143
184.691
175.628
166.94
158.615
150.641
143.007
135.703
128.721
122.051
115.687
109.622
103.848
98.3615
93.1555
88.2252
83.5657
79.1721
75.0399
71.1643
67.5409
64.1645
61.0309
58.1342
55.4704
53.032
50.8162
48.8107
47.3132
46.238
45.2645
44.3875
43.6035
42.9047
42.2831
41.7318
41.2444
40.815
40.4382
40.1088
39.8221
39.5736
39.3595
39.176
39.02
38.888
38.7781
38.6862
38.6139
38.5493
38.5177
38.4475
38.5698
1213.73
1044.95
983.133
925.227
871.319
823.54
780.33
740.426
703.418
668.939
636.659
606.331
577.758
550.772
525.233
501.022
478.035
456.181
435.38
415.562
396.662
378.623
361.394
344.928
329.182
314.115
299.693
285.882
272.65
259.971
247.817
236.165
224.992
214.277
204.001
194.146
184.696
175.637
166.953
158.633
150.664
143.037
135.741
128.767
122.108
115.756
109.705
103.947
98.4786
93.2928
88.3849
83.7502
79.3838
75.2812
71.4374
67.848
64.5075
61.4115
58.5534
55.9289
53.5298
51.3525
49.3842
47.9156
46.8608
45.9063
45.047
44.2784
43.5927
42.982
42.4395
41.959
41.5348
41.1613
40.8337
40.5473
40.298
40.0819
39.8956
39.7358
39.5997
39.4849
39.3883
39.3099
39.2421
39.1999
39.136
39.23
1213.51
1043.46
982.975
924.925
871.209
823.476
780.274
740.382
703.384
668.91
636.634
606.31
577.739
550.755
525.218
501.009
478.023
456.17
435.37
415.552
396.653
378.615
361.387
344.921
329.175
314.109
299.687
285.876
272.645
259.966
247.813
236.161
224.989
214.275
204
194.146
184.698
175.64
166.959
158.641
150.676