/*--------------------------------*- C++ -*----------------------------------*\
| =========                 |                                                 |
| \\      /  F ield         | OpenFOAM: The Open Source CFD Toolbox           |
|  \\    /   O peration     | Version:  2506                                  |
|   \\  /    A nd           | Website:  www.openfoam.com                      |
|    \\/     M anipulation  |                                                 |
\*---------------------------------------------------------------------------*/
FoamFile
{
    version     2.0;
    format      ascii;
    arch        "LSB;label=32;scalar=64";
    class       volScalarField;
    location    "1000";
    object      p;
}
// * * * * * * * * * * * * * * * * * * * * * * * * * * * * * * * * * * * * * //

dimensions      [0 2 -2 0 0 0 0];

internalField   nonuniform List<scalar> 
20540
(
0.234504
0.239577
0.234504
0.239573
0.234504
0.239567
0.234503
0.239559
0.234502
0.239551
0.234501
0.23954
0.2345
0.239526
0.234498
0.23951
0.234495
0.239489
0.234492
0.239462
0.234487
0.239429
0.234481
0.239387
0.234473
0.239334
0.234462
0.239267
0.234447
0.239182
0.234427
0.239075
0.2344
0.238941
0.234366
0.238776
0.234322
0.238572
0.234269
0.238326
0.234205
0.238033
0.234131
0.237691
0.234049
0.237299
0.233958
0.236857
0.233855
0.236361
0.233741
0.235803
0.233614
0.235183
0.233478
0.234511
0.233341
0.233822
0.233215
0.233173
0.233128
0.232712
0.23309
0.232478
0.2331
0.232458
0.233156
0.232651
0.23326
0.233063
0.233399
0.233648
0.233546
0.234279
0.23369
0.234901
0.233825
0.235483
0.233946
0.236011
0.234054
0.236484
0.234151
0.236908
0.234238
0.237285
0.234315
0.237616
0.234382
0.237903
0.234439
0.238146
0.234485
0.238349
0.234523
0.238515
0.234552
0.238651
0.234575
0.23876
0.234592
0.238848
0.234605
0.238917
0.234615
0.238973
0.234623
0.239017
0.234629
0.239052
0.234633
0.23908
0.234637
0.239103
0.234639
0.239121
0.234641
0.239135
0.234643
0.239147
0.234644
0.239157
0.234645
0.239164
0.234645
0.239171
0.234646
0.239176
0.234646
0.23918
0.211703
0.158179
0.139736
0.128245
0.116788
0.105831
0.0961648
0.087496
0.0795245
0.0721567
0.0653305
0.0589775
0.0530407
0.0474763
0.0422477
0.0373239
0.0326778
0.0282863
0.0241294
0.0201891
0.0164496
0.012897
0.00951859
0.00630296
0.00323977
0.000319591
-0.0024662
-0.00512557
-0.00766585
-0.0100939
-0.012416
-0.0146382
-0.0167661
-0.0188051
-0.0207601
-0.022636
-0.0244374
-0.0261687
-0.0278342
-0.029438
-0.0309841
-0.0324764
-0.0339187
-0.0353147
-0.0366678
-0.0379816
-0.0392594
-0.0405045
-0.0417201
-0.0429092
-0.0440747
-0.0452195
-0.0463463
-0.0474577
-0.0485562
-0.0496443
-0.050724
-0.051798
-0.0528678
-0.0539364
-0.0550047
-0.0560765
-0.0571515
-0.0580568
-0.0587688
-0.0594656
-0.0601487
-0.0608182
-0.0614745
-0.062118
-0.0627488
-0.0633676
-0.0639741
-0.0645698
-0.0651536
-0.065728
-0.0662907
-0.0668469
-0.0673904
-0.0679334
-0.0684587
-0.0690008
-0.0695026
-0.0700806
-0.0705197
-0.0712784
-0.0714149
-0.0737124
0.211701
0.158182
0.139737
0.128246
0.116788
0.105831
0.096165
0.0874961
0.0795246
0.0721568
0.0653306
0.0589776
0.0530408
0.0474764
0.0422478
0.0373239
0.0326778
0.0282864
0.0241294
0.0201891
0.0164497
0.0128971
0.00951863
0.006303
0.0032398
0.000319628
-0.00246617
-0.00512553
-0.00766582
-0.0100938
-0.012416
-0.0146382
-0.0167661
-0.0188051
-0.0207601
-0.022636
-0.0244374
-0.0261687
-0.0278342
-0.029438
-0.0309841
-0.0324764
-0.0339187
-0.0353147
-0.0366678
-0.0379816
-0.0392594
-0.0405045
-0.0417201
-0.0429092
-0.0440747
-0.0452195
-0.0463463
-0.0474578
-0.0485563
-0.0496444
-0.0507241
-0.0517981
-0.0528679
-0.0539365
-0.0550048
-0.0560767
-0.0571517
-0.0580569
-0.058769
-0.0594658
-0.0601489
-0.0608184
-0.0614747
-0.0621183
-0.0627491
-0.0633679
-0.0639745
-0.0645701
-0.065154
-0.0657284
-0.0662912
-0.0668474
-0.0673909
-0.0679341
-0.0684594
-0.0690017
-0.0695035
-0.0700822
-0.0705212
-0.071283
-0.0714223
-0.0736915
0.211699
0.158186
0.139738
0.128246
0.116788
0.105831
0.0961652
0.0874963
0.0795248
0.072157
0.0653308
0.0589777
0.0530409
0.0474765
0.0422479
0.037324
0.0326779
0.0282865
0.0241295
0.0201892
0.0164497
0.0128971
0.00951869
0.00630305
0.00323985
0.000319677
-0.00246612
-0.00512549
-0.00766577
-0.0100938
-0.0124159
-0.0146382
-0.0167661
-0.018805
-0.02076
-0.0226359
-0.0244373
-0.0261686
-0.0278341
-0.0294379
-0.0309841
-0.0324764
-0.0339187
-0.0353146
-0.0366678
-0.0379816
-0.0392594
-0.0405045
-0.0417201
-0.0429092
-0.0440747
-0.0452196
-0.0463464
-0.0474578
-0.0485563
-0.0496444
-0.0507242
-0.0517982
-0.052868
-0.0539367
-0.055005
-0.0560768
-0.0571519
-0.0580572
-0.0587693
-0.0594661
-0.0601492
-0.0608188
-0.0614751
-0.0621186
-0.0627495
-0.0633683
-0.0639749
-0.0645706
-0.0651545
-0.065729
-0.0662918
-0.0668481
-0.0673917
-0.067935
-0.0684604
-0.0690029
-0.0695048
-0.0700842
-0.0705231
-0.0712891
-0.0714321
-0.0736623
0.211696
0.15819
0.13974
0.128247
0.116789
0.105832
0.0961655
0.0874966
0.079525
0.0721571
0.0653309
0.0589779
0.053041
0.0474766
0.042248
0.0373241
0.032678
0.0282866
0.0241296
0.0201892
0.0164498
0.0128972
0.00951876
0.00630311
0.00323992
0.000319736
-0.00246607
-0.00512543
-0.00766572
-0.0100937
-0.0124159
-0.0146381
-0.016766
-0.018805
-0.02076
-0.0226359
-0.0244373
-0.0261686
-0.0278341
-0.0294379
-0.030984
-0.0324764
-0.0339187
-0.0353146
-0.0366678
-0.0379816
-0.0392594
-0.0405045
-0.0417201
-0.0429092
-0.0440747
-0.0452196
-0.0463464
-0.0474579
-0.0485564
-0.0496445
-0.0507243
-0.0517983
-0.0528681
-0.0539368
-0.0550052
-0.0560771
-0.0571522
-0.0580574
-0.0587696
-0.0594664
-0.0601495
-0.0608191
-0.0614755
-0.0621191
-0.0627499
-0.0633688
-0.0639755
-0.0645712
-0.0651552
-0.0657297
-0.0662926
-0.0668489
-0.0673926
-0.067936
-0.0684615
-0.0690043
-0.0695063
-0.0700866
-0.0705254
-0.0712958
-0.0714434
-0.073628
0.211692
0.158195
0.139741
0.128248
0.116789
0.105832
0.0961659
0.0874968
0.0795252
0.0721573
0.0653311
0.058978
0.0530412
0.0474767
0.0422481
0.0373242
0.0326781
0.0282867
0.0241297
0.0201893
0.0164499
0.0128973
0.00951883
0.00630319
0.00323999
0.000319806
-0.002466
-0.00512537
-0.00766566
-0.0100937
-0.0124158
-0.0146381
-0.016766
-0.0188049
-0.0207599
-0.0226358
-0.0244372
-0.0261685
-0.027834
-0.0294379
-0.030984
-0.0324763
-0.0339187
-0.0353146
-0.0366677
-0.0379816
-0.0392594
-0.0405045
-0.0417201
-0.0429092
-0.0440748
-0.0452196
-0.0463465
-0.047458
-0.0485565
-0.0496446
-0.0507244
-0.0517984
-0.0528683
-0.053937
-0.0550054
-0.0560773
-0.0571524
-0.0580578
-0.0587699
-0.0594668
-0.06015
-0.0608196
-0.061476
-0.0621196
-0.0627505
-0.0633694
-0.0639761
-0.0645719
-0.0651559
-0.0657305
-0.0662935
-0.0668499
-0.0673937
-0.0679372
-0.0684629
-0.0690059
-0.0695081
-0.0700893
-0.0705283
-0.0713031
-0.0714564
-0.0735882
0.211687
0.158201
0.139743
0.128249
0.11679
0.105832
0.0961663
0.0874972
0.0795255
0.0721576
0.0653313
0.0589782
0.0530413
0.0474769
0.0422483
0.0373244
0.0326782
0.0282868
0.0241298
0.0201894
0.01645
0.0128974
0.00951893
0.00630328
0.00324008
0.00031989
-0.00246592
-0.00512529
-0.00766558
-0.0100936
-0.0124158
-0.014638
-0.0167659
-0.0188049
-0.0207599
-0.0226358
-0.0244372
-0.0261685
-0.027834
-0.0294378
-0.030984
-0.0324763
-0.0339186
-0.0353146
-0.0366677
-0.0379815
-0.0392594
-0.0405045
-0.0417201
-0.0429093
-0.0440748
-0.0452197
-0.0463465
-0.0474581
-0.0485566
-0.0496448
-0.0507245
-0.0517986
-0.0528685
-0.0539373
-0.0550057
-0.0560776
-0.0571528
-0.0580582
-0.0587704
-0.0594672
-0.0601504
-0.0608201
-0.0614765
-0.0621202
-0.0627511
-0.0633701
-0.0639769
-0.0645727
-0.0651568
-0.0657315
-0.0662945
-0.0668511
-0.067395
-0.0679387
-0.0684645
-0.0690079
-0.0695102
-0.0700924
-0.0705317
-0.0713109
-0.0714715
-0.0735417
0.211681
0.158209
0.139746
0.12825
0.11679
0.105833
0.0961668
0.0874976
0.0795259
0.0721579
0.0653316
0.0589785
0.0530416
0.0474771
0.0422485
0.0373245
0.0326784
0.0282869
0.0241299
0.0201896
0.0164501
0.0128975
0.00951904
0.00630339
0.00324018
0.000319991
-0.00246582
-0.0051252
-0.00766549
-0.0100935
-0.0124157
-0.0146379
-0.0167658
-0.0188048
-0.0207598
-0.0226357
-0.0244371
-0.0261684
-0.0278339
-0.0294378
-0.0309839
-0.0324763
-0.0339186
-0.0353145
-0.0366677
-0.0379815
-0.0392594
-0.0405046
-0.0417202
-0.0429093
-0.0440749
-0.0452198
-0.0463466
-0.0474582
-0.0485567
-0.0496449
-0.0507247
-0.0517988
-0.0528688
-0.0539375
-0.055006
-0.056078
-0.0571532
-0.0580586
-0.0587709
-0.0594678
-0.060151
-0.0608207
-0.0614772
-0.0621209
-0.0627519
-0.063371
-0.0639778
-0.0645737
-0.0651579
-0.0657326
-0.0662958
-0.0668524
-0.0673965
-0.0679404
-0.0684663
-0.0690101
-0.0695128
-0.0700959
-0.0705359
-0.0713191
-0.0714884
-0.0734876
0.211673
0.158217
0.139748
0.128252
0.116791
0.105834
0.0961673
0.0874981
0.0795263
0.0721582
0.0653319
0.0589787
0.0530418
0.0474773
0.0422487
0.0373247
0.0326786
0.0282871
0.0241301
0.0201897
0.0164503
0.0128976
0.00951918
0.00630352
0.00324031
0.000320113
-0.0024657
-0.00512508
-0.00766538
-0.0100934
-0.0124156
-0.0146378
-0.0167657
-0.0188047
-0.0207597
-0.0226356
-0.024437
-0.0261683
-0.0278339
-0.0294377
-0.0309839
-0.0324762
-0.0339185
-0.0353145
-0.0366677
-0.0379815
-0.0392594
-0.0405046
-0.0417202
-0.0429093
-0.0440749
-0.0452198
-0.0463467
-0.0474583
-0.0485569
-0.0496451
-0.0507249
-0.0517991
-0.052869
-0.0539379
-0.0550064
-0.0560784
-0.0571537
-0.0580592
-0.0587714
-0.0594684
-0.0601517
-0.0608215
-0.061478
-0.0621218
-0.0627528
-0.063372
-0.0639789
-0.0645749
-0.0651591
-0.065734
-0.0662972
-0.066854
-0.0673982
-0.0679423
-0.0684685
-0.0690127
-0.0695158
-0.0700998
-0.0705409
-0.0713271
-0.0715068
-0.0734246
0.211662
0.158227
0.139752
0.128253
0.116792
0.105835
0.096168
0.0874987
0.0795268
0.0721587
0.0653323
0.0589791
0.0530421
0.0474776
0.0422489
0.037325
0.0326788
0.0282873
0.0241303
0.0201899
0.0164505
0.0128978
0.00951935
0.00630368
0.00324046
0.000320261
-0.00246556
-0.00512494
-0.00766525
-0.0100933
-0.0124154
-0.0146377
-0.0167656
-0.0188046
-0.0207596
-0.0226355
-0.0244369
-0.0261683
-0.0278338
-0.0294376
-0.0309838
-0.0324761
-0.0339185
-0.0353144
-0.0366676
-0.0379815
-0.0392594
-0.0405046
-0.0417202
-0.0429094
-0.044075
-0.0452199
-0.0463468
-0.0474584
-0.048557
-0.0496453
-0.0507252
-0.0517993
-0.0528694
-0.0539382
-0.0550068
-0.0560789
-0.0571543
-0.0580598
-0.0587721
-0.0594691
-0.0601525
-0.0608223
-0.0614789
-0.0621228
-0.0627539
-0.0633731
-0.0639801
-0.0645762
-0.0651605
-0.0657356
-0.0662989
-0.0668559
-0.0674002
-0.0679446
-0.0684711
-0.0690156
-0.0695192
-0.0701041
-0.070547
-0.0713341
-0.0715258
-0.0733508
0.211648
0.158238
0.139756
0.128256
0.116794
0.105836
0.0961689
0.0874994
0.0795274
0.0721592
0.0653327
0.0589795
0.0530425
0.0474779
0.0422493
0.0373253
0.0326791
0.0282876
0.0241305
0.0201902
0.0164507
0.012898
0.00951955
0.00630387
0.00324064
0.000320438
-0.00246539
-0.00512478
-0.00766509
-0.0100931
-0.0124153
-0.0146375
-0.0167655
-0.0188044
-0.0207595
-0.0226354
-0.0244368
-0.0261681
-0.0278337
-0.0294375
-0.0309837
-0.0324761
-0.0339184
-0.0353144
-0.0366676
-0.0379814
-0.0392593
-0.0405046
-0.0417202
-0.0429094
-0.044075
-0.04522
-0.0463469
-0.0474586
-0.0485572
-0.0496455
-0.0507254
-0.0517997
-0.0528698
-0.0539387
-0.0550073
-0.0560795
-0.0571549
-0.0580605
-0.0587729
-0.05947
-0.0601534
-0.0608233
-0.06148
-0.0621239
-0.0627552
-0.0633745
-0.0639816
-0.0645778
-0.0651622
-0.0657374
-0.0663009
-0.066858
-0.0674026
-0.0679472
-0.068474
-0.0690189
-0.0695233
-0.0701085
-0.0705539
-0.0713392
-0.0715437
-0.0732632
0.211629
0.158252
0.139761
0.128258
0.116795
0.105837
0.0961699
0.0875002
0.0795281
0.0721598
0.0653333
0.05898
0.0530429
0.0474783
0.0422496
0.0373256
0.0326794
0.0282879
0.0241308
0.0201904
0.0164509
0.0128983
0.00951979
0.0063041
0.00324087
0.000320651
-0.00246518
-0.00512458
-0.00766489
-0.0100929
-0.0124151
-0.0146374
-0.0167653
-0.0188043
-0.0207593
-0.0226352
-0.0244367
-0.026168
-0.0278335
-0.0294374
-0.0309836
-0.0324759
-0.0339183
-0.0353143
-0.0366675
-0.0379814
-0.0392593
-0.0405045
-0.0417202
-0.0429094
-0.0440751
-0.0452201
-0.0463471
-0.0474587
-0.0485575
-0.0496458
-0.0507258
-0.0518001
-0.0528702
-0.0539392
-0.0550079
-0.0560802
-0.0571557
-0.0580614
-0.0587739
-0.059471
-0.0601545
-0.0608245
-0.0614813
-0.0621253
-0.0627566
-0.063376
-0.0639832
-0.0645795
-0.0651641
-0.0657394
-0.0663031
-0.0668604
-0.0674052
-0.0679501
-0.0684773
-0.0690224
-0.0695277
-0.0701127
-0.0705616
-0.0713405
-0.0715579
-0.0731571
0.211605
0.158269
0.139766
0.128261
0.116797
0.105838
0.0961711
0.0875012
0.0795289
0.0721606
0.065334
0.0589806
0.0530435
0.0474788
0.0422501
0.037326
0.0326798
0.0282883
0.0241312
0.0201908
0.0164512
0.0128986
0.00952007
0.00630438
0.00324113
0.000320907
-0.00246494
-0.00512434
-0.00766466
-0.0100927
-0.0124149
-0.0146372
-0.0167651
-0.0188041
-0.0207591
-0.0226351
-0.0244365
-0.0261678
-0.0278334
-0.0294372
-0.0309834
-0.0324758
-0.0339182
-0.0353142
-0.0366674
-0.0379813
-0.0392593
-0.0405045
-0.0417202
-0.0429095
-0.0440752
-0.0452202
-0.0463472
-0.0474589
-0.0485577
-0.0496461
-0.0507261
-0.0518005
-0.0528707
-0.0539398
-0.0550086
-0.0560809
-0.0571566
-0.0580624
-0.0587749
-0.0594721
-0.0601557
-0.0608258
-0.0614827
-0.0621268
-0.0627582
-0.0633777
-0.0639851
-0.0645815
-0.0651663
-0.0657417
-0.0663056
-0.0668631
-0.0674081
-0.0679531
-0.0684808
-0.069026
-0.0695325
-0.0701161
-0.0705693
-0.0713357
-0.0715644
-0.0730266
0.211572
0.158289
0.139773
0.128265
0.1168
0.10584
0.0961726
0.0875024
0.07953
0.0721615
0.0653348
0.0589813
0.0530441
0.0474794
0.0422506
0.0373266
0.0326803
0.0282887
0.0241316
0.0201912
0.0164516
0.0128989
0.00952042
0.00630471
0.00324145
0.000321213
-0.00246464
-0.00512406
-0.00766439
-0.0100925
-0.0124146
-0.0146369
-0.0167649
-0.0188038
-0.0207589
-0.0226348
-0.0244363
-0.0261676
-0.0278332
-0.0294371
-0.0309833
-0.0324757
-0.0339181
-0.0353141
-0.0366673
-0.0379813
-0.0392592
-0.0405045
-0.0417202
-0.0429095
-0.0440753
-0.0452203
-0.0463474
-0.0474592
-0.048558
-0.0496464
-0.0507265
-0.0518009
-0.0528712
-0.0539404
-0.0550093
-0.0560817
-0.0571575
-0.0580634
-0.058776
-0.0594734
-0.0601571
-0.0608272
-0.0614842
-0.0621284
-0.06276
-0.0633796
-0.0639871
-0.0645837
-0.0651686
-0.0657442
-0.0663082
-0.0668659
-0.0674112
-0.0679563
-0.0684844
-0.0690293
-0.0695369
-0.0701179
-0.0705753
-0.0713216
-0.0715574
-0.0728649
0.21153
0.158315
0.139781
0.12827
0.116802
0.105842
0.0961743
0.0875039
0.0795312
0.0721625
0.0653357
0.0589822
0.0530449
0.0474801
0.0422513
0.0373272
0.0326808
0.0282892
0.0241321
0.0201916
0.0164521
0.0128994
0.00952083
0.00630511
0.00324183
0.00032158
-0.00246429
-0.00512371
-0.00766406
-0.0100921
-0.0124143
-0.0146366
-0.0167646
-0.0188036
-0.0207586
-0.0226346
-0.024436
-0.0261674
-0.027833
-0.0294368
-0.0309831
-0.0324755
-0.0339179
-0.0353139
-0.0366672
-0.0379812
-0.0392591
-0.0405045
-0.0417202
-0.0429095
-0.0440753
-0.0452204
-0.0463476
-0.0474594
-0.0485582
-0.0496468
-0.0507269
-0.0518014
-0.0528718
-0.0539411
-0.0550101
-0.0560826
-0.0571585
-0.0580645
-0.0587773
-0.0594747
-0.0601585
-0.0608288
-0.0614858
-0.0621302
-0.0627618
-0.0633816
-0.0639892
-0.0645859
-0.0651709
-0.0657466
-0.0663109
-0.0668686
-0.0674141
-0.0679591
-0.0684876
-0.0690317
-0.0695402
-0.0701165
-0.0705767
-0.071294
-0.0715286
-0.0726676
0.211474
0.158348
0.13979
0.128275
0.116806
0.105845
0.0961764
0.0875056
0.0795327
0.0721638
0.0653368
0.0589832
0.0530458
0.047481
0.0422521
0.0373279
0.0326815
0.0282899
0.0241327
0.0201922
0.0164526
0.0128999
0.00952133
0.00630558
0.00324228
0.000322018
-0.00246386
-0.00512331
-0.00766366
-0.0100918
-0.012414
-0.0146362
-0.0167642
-0.0188032
-0.0207583
-0.0226343
-0.0244357
-0.0261671
-0.0278327
-0.0294366
-0.0309828
-0.0324752
-0.0339177
-0.0353137
-0.036667
-0.037981
-0.039259
-0.0405044
-0.0417202
-0.0429095
-0.0440754
-0.0452205
-0.0463477
-0.0474596
-0.0485585
-0.0496471
-0.0507273
-0.0518019
-0.0528724
-0.0539418
-0.0550108
-0.0560835
-0.0571595
-0.0580657
-0.0587785
-0.059476
-0.0601599
-0.0608302
-0.0614874
-0.0621318
-0.0627636
-0.0633835
-0.0639911
-0.0645879
-0.0651731
-0.0657488
-0.0663131
-0.0668708
-0.0674163
-0.067961
-0.0684894
-0.0690319
-0.0695402
-0.0701093
-0.0705685
-0.0712476
-0.0714687
-0.0724324
0.211403
0.158392
0.139801
0.128282
0.11681
0.105848
0.0961789
0.0875077
0.0795345
0.0721654
0.0653382
0.0589844
0.0530469
0.047482
0.042253
0.0373288
0.0326823
0.0282906
0.0241334
0.0201929
0.0164533
0.0129005
0.00952191
0.00630614
0.00324283
0.000322539
-0.00246336
-0.00512282
-0.00766319
-0.0100913
-0.0124135
-0.0146358
-0.0167638
-0.0188028
-0.0207579
-0.0226339
-0.0244353
-0.0261667
-0.0278323
-0.0294362
-0.0309825
-0.032475
-0.0339174
-0.0353135
-0.0366668
-0.0379808
-0.0392589
-0.0405042
-0.0417201
-0.0429095
-0.0440753
-0.0452205
-0.0463478
-0.0474597
-0.0485587
-0.0496473
-0.0507277
-0.0518023
-0.0528729
-0.0539423
-0.0550115
-0.0560843
-0.0571604
-0.0580666
-0.0587796
-0.0594771
-0.060161
-0.0608315
-0.0614887
-0.0621332
-0.062765
-0.0633849
-0.0639926
-0.0645894
-0.0651745
-0.0657502
-0.0663144
-0.0668717
-0.0674169
-0.0679607
-0.0684882
-0.0690279
-0.0695339
-0.0700922
-0.0705437
-0.0711754
-0.0713675
-0.0721608
0.211316
0.158453
0.139813
0.128291
0.116815
0.105851
0.0961819
0.0875102
0.0795366
0.0721672
0.0653398
0.0589859
0.0530483
0.0474832
0.0422541
0.0373298
0.0326833
0.0282915
0.0241343
0.0201937
0.016454
0.0129012
0.00952261
0.00630681
0.00324347
0.000323159
-0.00246276
-0.00512224
-0.00766263
-0.0100908
-0.012413
-0.0146353
-0.0167633
-0.0188023
-0.0207574
-0.0226334
-0.0244349
-0.0261663
-0.0278319
-0.0294358
-0.0309821
-0.0324746
-0.033917
-0.0353131
-0.0366665
-0.0379805
-0.0392586
-0.040504
-0.0417199
-0.0429093
-0.0440752
-0.0452204
-0.0463477
-0.0474597
-0.0485587
-0.0496474
-0.0507278
-0.0518025
-0.0528731
-0.0539426
-0.0550119
-0.0560847
-0.0571608
-0.0580671
-0.0587801
-0.0594777
-0.0601616
-0.0608321
-0.0614893
-0.0621338
-0.0627655
-0.0633853
-0.0639929
-0.0645895
-0.0651744
-0.0657497
-0.0663133
-0.0668699
-0.067414
-0.067956
-0.0684811
-0.069016
-0.0695159
-0.0700589
-0.0704924
-0.0710692
-0.0712163
-0.07186
0.211212
0.15854
0.139828
0.128301
0.116822
0.105856
0.0961855
0.0875133
0.0795392
0.0721694
0.0653418
0.0589876
0.0530498
0.0474846
0.0422554
0.037331
0.0326844
0.0282926
0.0241353
0.0201946
0.0164549
0.0129021
0.00952344
0.0063076
0.00324423
0.000323894
-0.00246205
-0.00512155
-0.00766196
-0.0100901
-0.0124124
-0.0146347
-0.0167627
-0.0188018
-0.0207569
-0.0226329
-0.0244344
-0.0261658
-0.0278314
-0.0294353
-0.0309816
-0.0324741
-0.0339166
-0.0353127
-0.036666
-0.0379801
-0.0392582
-0.0405036
-0.0417195
-0.0429089
-0.0440748
-0.0452201
-0.0463474
-0.0474593
-0.0485584
-0.0496471
-0.0507275
-0.0518022
-0.0528728
-0.0539423
-0.0550116
-0.0560844
-0.0571604
-0.0580667
-0.0587797
-0.0594772
-0.060161
-0.0608313
-0.0614883
-0.0621326
-0.0627641
-0.0633836
-0.0639908
-0.0645868
-0.065171
-0.0657454
-0.0663078
-0.0668628
-0.0674046
-0.0679432
-0.0684633
-0.0689904
-0.0694782
-0.07
-0.0704028
-0.0709198
-0.0710094
-0.0715385
0.211094
0.158663
0.139848
0.128316
0.116831
0.105861
0.0961898
0.087517
0.0795423
0.0721721
0.0653441
0.0589897
0.0530517
0.0474864
0.042257
0.0373325
0.0326858
0.0282939
0.0241365
0.0201958
0.016456
0.0129031
0.00952442
0.00630855
0.00324514
0.000324766
-0.00246121
-0.00512074
-0.00766117
-0.0100893
-0.0124116
-0.014634
-0.016762
-0.0188011
-0.0207562
-0.0226322
-0.0244337
-0.0261651
-0.0278307
-0.0294347
-0.030981
-0.0324734
-0.0339159
-0.035312
-0.0366654
-0.0379794
-0.0392575
-0.0405029
-0.0417187
-0.0429081
-0.044074
-0.0452193
-0.0463465
-0.0474584
-0.0485574
-0.0496461
-0.0507264
-0.051801
-0.0528715
-0.0539409
-0.05501
-0.0560825
-0.0571583
-0.0580642
-0.0587772
-0.0594744
-0.0601578
-0.0608277
-0.0614843
-0.062128
-0.0627589
-0.0633776
-0.0639839
-0.0645788
-0.0651615
-0.065734
-0.0662941
-0.0668458
-0.0673831
-0.0679159
-0.0684269
-0.0689416
-0.0694094
-0.0699028
-0.0702617
-0.0707183
-0.0707436
-0.0712008
0.210971
0.158835
0.139874
0.128336
0.116843
0.105868
0.0961951
0.0875216
0.0795461
0.0721753
0.065347
0.0589923
0.053054
0.0474884
0.0422589
0.0373342
0.0326874
0.0282954
0.0241379
0.0201971
0.0164573
0.0129043
0.00952559
0.00630967
0.00324622
0.000325806
-0.0024602
-0.00511976
-0.00766023
-0.0100884
-0.0124107
-0.0146331
-0.0167611
-0.0188002
-0.0207553
-0.0226313
-0.0244329
-0.0261643
-0.0278299
-0.0294338
-0.0309801
-0.0324725
-0.033915
-0.0353111
-0.0366643
-0.0379783
-0.0392563
-0.0405016
-0.0417174
-0.0429067
-0.0440725
-0.0452176
-0.0463447
-0.0474564
-0.0485552
-0.0496437
-0.0507237
-0.0517981
-0.0528682
-0.0539372
-0.0550058
-0.0560778
-0.0571529
-0.0580582
-0.0587707
-0.0594674
-0.0601499
-0.060819
-0.0614746
-0.0621172
-0.0627468
-0.0633639
-0.0639683
-0.064561
-0.0651409
-0.06571
-0.0662655
-0.0668116
-0.067341
-0.0678638
-0.0683598
-0.0688557
-0.0692937
-0.0697513
-0.0700551
-0.0704563
-0.0704171
-0.0708435
0.210853
0.159071
0.13991
0.128365
0.116861
0.105878
0.0962019
0.0875275
0.0795511
0.0721794
0.0653505
0.0589954
0.0530569
0.047491
0.0422613
0.0373364
0.0326894
0.0282973
0.0241397
0.0201988
0.0164589
0.0129058
0.00952701
0.00631102
0.00324752
0.000327058
-0.002459
-0.00511859
-0.00765909
-0.0100873
-0.0124096
-0.014632
-0.0167601
-0.0187991
-0.0207543
-0.0226303
-0.0244318
-0.0261632
-0.0278288
-0.0294327
-0.0309788
-0.0324712
-0.0339136
-0.0353096
-0.0366627
-0.0379766
-0.0392544
-0.0404995
-0.0417151
-0.0429041
-0.0440696
-0.0452144
-0.0463411
-0.0474525
-0.0485508
-0.0496387
-0.0507182
-0.0517919
-0.0528613
-0.0539295
-0.0549971
-0.0560679
-0.0571415
-0.0580455
-0.0587572
-0.0594526
-0.0601334
-0.0608008
-0.0614546
-0.062095
-0.0627221
-0.0633363
-0.0639372
-0.0645257
-0.0651005
-0.0656635
-0.0662111
-0.0667477
-0.0672639
-0.0677709
-0.068244
-0.0687133
-0.069111
-0.069527
-0.0697687
-0.0701246
-0.0700254
-0.0704531
0.210753
0.159382
0.13996
0.128408
0.116886
0.10589
0.096211
0.0875355
0.0795577
0.0721848
0.0653552
0.0589995
0.0530605
0.0474943
0.0422642
0.0373391
0.032692
0.0282996
0.0241418
0.0202008
0.0164608
0.0129077
0.00952875
0.00631269
0.00324912
0.000328597
-0.00245751
-0.00511715
-0.00765768
-0.0100859
-0.0124083
-0.0146307
-0.0167587
-0.0187978
-0.0207529
-0.0226289
-0.0244303
-0.0261617
-0.0278272
-0.029431
-0.030977
-0.0324693
-0.0339114
-0.0353072
-0.0366601
-0.0379736
-0.0392511
-0.0404958
-0.0417109
-0.0428994
-0.0440643
-0.0452085
-0.0463344
-0.047445
-0.0485424
-0.0496293
-0.0507076
-0.05178
-0.052848
-0.0539144
-0.0549802
-0.0560487
-0.0571195
-0.058021
-0.0587308
-0.0594238
-0.0601017
-0.060766
-0.0614162
-0.0620527
-0.0626752
-0.0632841
-0.0638789
-0.0644602
-0.0650262
-0.0655789
-0.0661134
-0.0666345
-0.0671304
-0.0676139
-0.0680545
-0.0684888
-0.0688373
-0.0692088
-0.0693872
-0.06971
-0.0695587
-0.0700061
0.210679
0.159772
0.140027
0.128468
0.116924
0.105909
0.0962237
0.0875467
0.0795669
0.0721923
0.0653615
0.059005
0.0530654
0.0474986
0.0422682
0.0373427
0.0326952
0.0283027
0.0241447
0.0202035
0.0164633
0.01291
0.00953099
0.00631482
0.00325115
0.000330553
-0.00245562
-0.00511532
-0.0076559
-0.0100842
-0.0124065
-0.0146289
-0.016757
-0.018796
-0.0207511
-0.022627
-0.0244284
-0.0261596
-0.0278249
-0.0294285
-0.0309743
-0.0324662
-0.033908
-0.0353033
-0.0366557
-0.0379686
-0.0392454
-0.0404894
-0.0417036
-0.0428911
-0.0440549
-0.0451977
-0.0463223
-0.0474313
-0.0485269
-0.0496119
-0.050688
-0.0517579
-0.0528232
-0.0538865
-0.0549487
-0.056013
-0.057079
-0.0579759
-0.0586819
-0.0593706
-0.0600434
-0.060702
-0.0613461
-0.0619756
-0.0625902
-0.0631901
-0.0637743
-0.0643436
-0.0648952
-0.0654312
-0.0659452
-0.0664429
-0.0669093
-0.06736
-0.0677587
-0.0681505
-0.0684441
-0.0687713
-0.0688906
-0.0691906
-0.0689979
-0.0694686
0.210629
0.160236
0.14011
0.12855
0.116979
0.105935
0.0962417
0.0875628
0.07958
0.0722028
0.0653704
0.0590128
0.0530722
0.0475046
0.0422736
0.0373476
0.0326997
0.0283068
0.0241485
0.0202071
0.0164666
0.0129132
0.00953397
0.00631765
0.00325386
0.000333151
-0.00245311
-0.00511289
-0.00765352
-0.0100818
-0.0124042
-0.0146266
-0.0167546
-0.0187936
-0.0207486
-0.0226243
-0.0244255
-0.0261564
-0.0278214
-0.0294246
-0.0309699
-0.0324612
-0.0339023
-0.0352969
-0.0366483
-0.0379601
-0.0392357
-0.0404782
-0.0416908
-0.0428766
-0.0440383
-0.0451788
-0.0463008
-0.0474069
-0.0484994
-0.0495808
-0.050653
-0.0517185
-0.0527788
-0.0538365
-0.0548923
-0.0559493
-0.0570067
-0.0578956
-0.0585949
-0.0592759
-0.05994
-0.060589
-0.0612226
-0.0618403
-0.0624416
-0.0630266
-0.0635938
-0.0641437
-0.0646729
-0.0651834
-0.0656675
-0.0661317
-0.0665584
-0.0669668
-0.0673157
-0.0676596
-0.0678972
-0.0681816
-0.0682506
-0.0685314
-0.0683116
-0.0687924
0.210589
0.160766
0.140207
0.128652
0.117051
0.10597
0.0962663
0.087585
0.0795985
0.0722177
0.065383
0.0590238
0.0530819
0.0475132
0.0422813
0.0373546
0.0327061
0.0283126
0.0241539
0.0202121
0.0164713
0.0129176
0.00953812
0.0063216
0.00325762
0.000336756
-0.00244964
-0.00510951
-0.00765021
-0.0100786
-0.0124009
-0.0146233
-0.0167512
-0.0187901
-0.0207448
-0.0226203
-0.0244211
-0.0261516
-0.027816
-0.0294185
-0.0309629
-0.0324533
-0.0338931
-0.0352862
-0.036636
-0.037946
-0.0392193
-0.0404594
-0.0416691
-0.0428516
-0.0440098
-0.0451463
-0.0462638
-0.0473649
-0.0484518
-0.049527
-0.0505923
-0.0516501
-0.0527018
-0.0537499
-0.0547949
-0.0558394
-0.0568825
-0.0577576
-0.0584451
-0.0591132
-0.059763
-0.0603963
-0.0610125
-0.0616113
-0.0621914
-0.0627529
-0.0632937
-0.0638144
-0.0643106
-0.0647847
-0.0652279
-0.0656478
-0.0660254
-0.0663832
-0.0666775
-0.0669699
-0.067155
-0.067397
-0.0674279
-0.0676837
-0.0674566
-0.0679173
0.210546
0.161356
0.140313
0.12877
0.11714
0.106015
0.0962974
0.0876139
0.0796229
0.0722376
0.0654002
0.059039
0.0530953
0.0475252
0.042292
0.0373644
0.032715
0.0283209
0.0241615
0.0202192
0.016478
0.0129238
0.00954402
0.00632719
0.00326295
0.00034187
-0.0024447
-0.00510471
-0.0076455
-0.0100739
-0.0123963
-0.0146185
-0.0167463
-0.0187849
-0.0207393
-0.0226143
-0.0244145
-0.0261442
-0.0278076
-0.0294089
-0.0309519
-0.0324405
-0.0338783
-0.035269
-0.036616
-0.0379228
-0.0391924
-0.0404282
-0.0416332
-0.0428104
-0.0439625
-0.0450922
-0.0462021
-0.0472948
-0.0483724
-0.0494372
-0.050491
-0.051536
-0.0525735
-0.0536055
-0.0546326
-0.0556567
-0.0566766
-0.0575295
-0.0581976
-0.0588448
-0.0594718
-0.0600804
-0.0606698
-0.0612393
-0.0617875
-0.0623141
-0.0628169
-0.0632962
-0.0637474
-0.0641731
-0.0645647
-0.0649304
-0.065252
-0.065553
-0.0657923
-0.0660309
-0.0661706
-0.0663671
-0.0663745
-0.0665904
-0.0663816
-0.0667774
0.210488
0.162004
0.140427
0.128901
0.117243
0.106066
0.0963341
0.0876487
0.0796527
0.0722622
0.0654215
0.0590581
0.0531124
0.0475406
0.0423061
0.0373772
0.0327269
0.0283318
0.0241718
0.0202287
0.016487
0.0129323
0.00955208
0.00633487
0.0032703
0.000348947
-0.00243784
-0.00509801
-0.0076389
-0.0100673
-0.0123896
-0.0146117
-0.0167392
-0.0187774
-0.0207312
-0.0226055
-0.0244046
-0.026133
-0.0277949
-0.0293943
-0.030935
-0.0324208
-0.0338554
-0.0352422
-0.0365847
-0.0378863
-0.0391501
-0.0403791
-0.0415765
-0.042745
-0.0438874
-0.0450063
-0.0461041
-0.0471833
-0.0482459
-0.0492941
-0.0503296
-0.0513543
-0.0523692
-0.053376
-0.0543749
-0.0553672
-0.0563515
-0.05717
-0.057808
-0.0584234
-0.0590165
-0.0595886
-0.0601388
-0.0606663
-0.0611696
-0.0616484
-0.0621002
-0.0625256
-0.0629205
-0.0632875
-0.0636194
-0.063924
-0.0641867
-0.0644281
-0.0646155
-0.0647996
-0.0649028
-0.0650495
-0.0650482
-0.0652063
-0.0650419
-0.0653279
0.21042
0.162701
0.140548
0.129039
0.117358
0.106123
0.0963749
0.0876877
0.0796865
0.0722904
0.0654462
0.0590803
0.0531324
0.0475588
0.0423227
0.0373926
0.0327411
0.0283451
0.0241842
0.0202405
0.016498
0.0129428
0.0095621
0.00634447
0.00327954
0.000357892
-0.00242913
-0.00508945
-0.0076304
-0.0100588
-0.0123809
-0.0146027
-0.0167298
-0.0187673
-0.0207202
-0.0225932
-0.0243909
-0.0261174
-0.0277769
-0.0293733
-0.0309105
-0.0323922
-0.0338218
-0.0352028
-0.0365386
-0.0378324
-0.0390872
-0.0403061
-0.0414919
-0.0426474
-0.0437752
-0.0448777
-0.0459573
-0.0470162
-0.0480564
-0.0490797
-0.0500877
-0.0510819
-0.0520631
-0.0530325
-0.0539899
-0.0549358
-0.0558685
-0.0566374
-0.0572323
-0.0578027
-0.0583487
-0.0588709
-0.0593685
-0.0598407
-0.0602863
-0.0607049
-0.0610949
-0.0614566
-0.0617875
-0.0620897
-0.0623588
-0.0626006
-0.0628063
-0.06299
-0.0631317
-0.0632644
-0.0633403
-0.0634373
-0.0634389
-0.0635321
-0.0634282
-0.0635868
0.210345
0.163416
0.140673
0.129176
0.117479
0.106183
0.096417
0.0877286
0.0797221
0.0723203
0.0654726
0.0591042
0.0531541
0.0475785
0.0423409
0.0374094
0.0327569
0.0283599
0.0241981
0.0202536
0.0165105
0.0129547
0.00957343
0.00635536
0.00329007
0.000368129
-0.00241909
-0.00507953
-0.00762048
-0.0100487
-0.0123706
-0.0145919
-0.0167183
-0.0187548
-0.0207064
-0.0225777
-0.0243731
-0.0260969
-0.0277531
-0.0293454
-0.0308777
-0.0323534
-0.0337761
-0.035149
-0.0364753
-0.0377581
-0.0390003
-0.0402049
-0.0413744
-0.0425115
-0.0436187
-0.0446981
-0.0457521
-0.0467825
-0.0477912
-0.0487797
-0.0497492
-0.050701
-0.0516355
-0.0525533
-0.053454
-0.0543371
-0.0552006
-0.055904
-0.0564427
-0.0569551
-0.0574414
-0.0579017
-0.0583354
-0.0587419
-0.0591207
-0.0594716
-0.059794
-0.0600883
-0.0603536
-0.0605916
-0.0608007
-0.0609845
-0.0611396
-0.0612735
-0.0613779
-0.0614689
-0.0615258
-0.0615844
-0.0615941
-0.0616376
-0.0615905
-0.061651
0.210266
0.164087
0.140796
0.129302
0.117595
0.106241
0.0964569
0.0877673
0.079756
0.0723487
0.0654977
0.059127
0.0531749
0.0475976
0.0423585
0.0374259
0.0327722
0.0283743
0.0242117
0.0202665
0.0165228
0.0129665
0.00958476
0.0063663
0.00330069
0.000378513
-0.00240885
-0.00506932
-0.00761017
-0.0100382
-0.0123596
-0.0145802
-0.0167056
-0.0187407
-0.0206905
-0.0225596
-0.0243521
-0.0260723
-0.027724
-0.0293109
-0.0308366
-0.0323046
-0.0337181
-0.0350802
-0.0363939
-0.0376622
-0.0388878
-0.0400734
-0.0412214
-0.0423342
-0.0434142
-0.0444633
-0.0454835
-0.0464765
-0.0474438
-0.0483866
-0.049306
-0.0502026
-0.0510768
-0.0519284
-0.0527569
-0.0535611
-0.0543387
-0.0549629
-0.0554346
-0.055879
-0.0562964
-0.0566869
-0.05705
-0.057386
-0.0576949
-0.057977
-0.0582325
-0.0584623
-0.0586667
-0.058847
-0.0590036
-0.0591385
-0.0592516