/*--------------------------------*- C++ -*----------------------------------*\
| =========                 |                                                 |
| \\      /  F ield         | OpenFOAM: The Open Source CFD Toolbox           |
|  \\    /   O peration     | Version:  2506                                  |
|   \\  /    A nd           | Website:  www.openfoam.com                      |
|    \\/     M anipulation  |                                                 |
\*---------------------------------------------------------------------------*/
FoamFile
{
    version     2.0;
    format      ascii;
    arch        "LSB;label=32;scalar=64";
    class       surfaceScalarField;
    location    "1000";
    object      phi;
}
// * * * * * * * * * * * * * * * * * * * * * * * * * * * * * * * * * * * * * //

dimensions      [0 3 -1 0 0 0 0];

oriented        oriented;

internalField   nonuniform List<scalar> 
40747
(
3.43002e-07
-6.33918e-09
1.70191e-07
1.72811e-07
4.15558e-07
-1.46273e-08
3.73882e-07
2.11867e-07
5.03674e-07
-2.56153e-08
6.17138e-07
2.60418e-07
6.10775e-07
-4.03742e-08
9.06876e-07
3.21038e-07
7.41072e-07
-6.04294e-08
1.25086e-06
3.97085e-07
8.99743e-07
-8.79384e-08
1.65765e-06
4.92958e-07
1.09316e-06
-1.25928e-07
2.13637e-06
6.14437e-07
1.32913e-06
-1.786e-07
2.69638e-06
7.69119e-07
1.61728e-06
-2.51709e-07
3.34667e-06
9.66991e-07
1.96931e-06
-3.52993e-07
4.09486e-06
1.22112e-06
2.39943e-06
-4.92617e-07
4.94579e-06
1.5485e-06
2.92463e-06
-6.83497e-07
5.89948e-06
1.97093e-06
3.5649e-06
-9.41311e-07
6.9484e-06
2.51598e-06
4.34315e-06
-1.28378e-06
8.07397e-06
3.21759e-06
5.28462e-06
-1.72867e-06
9.2425e-06
4.11609e-06
6.41571e-06
-2.28962e-06
1.04012e-05
5.25703e-06
7.76204e-06
-2.969e-06
1.14753e-05
6.68793e-06
9.34631e-06
-3.74721e-06
1.23692e-05
8.45235e-06
1.11875e-05
-4.56968e-06
1.29753e-05
1.05815e-05
1.33055e-05
-5.33631e-06
1.31946e-05
1.30862e-05
1.57371e-05
-5.90477e-06
1.29732e-05
1.59585e-05
1.85698e-05
-6.12461e-06
1.23457e-05
1.91973e-05
2.19862e-05
-5.91244e-06
1.14584e-05
2.28735e-05
2.62803e-05
-5.33873e-06
1.05235e-05
2.72153e-05
3.17793e-05
-4.63198e-06
9.68296e-06
3.26198e-05
3.86873e-05
-4.02004e-06
8.88108e-06
3.94892e-05
4.70548e-05
-3.53344e-06
7.92382e-06
4.80121e-05
5.702e-05
-3.04124e-06
6.68015e-06
5.82637e-05
6.89823e-05
-2.44947e-06
5.12948e-06
7.0533e-05
8.34635e-05
-1.74734e-06
3.26138e-06
8.53317e-05
8.00154e-05
-1.11779e-06
1.51278e-06
8.1764e-05
8.00375e-05
-5.10317e-07
-2.16609e-07
8.17669e-05
8.00404e-05
9.42374e-08
-1.94641e-06
8.17702e-05
8.00246e-05
7.14581e-07
-3.69609e-06
8.17743e-05
8.09515e-05
1.37543e-06
-5.50455e-06
8.276e-05
6.73379e-05
1.93046e-06
-7.01413e-06
6.88475e-05
5.60178e-05
2.39245e-06
-8.23627e-06
5.724e-05
4.65353e-05
2.84241e-06
-9.18919e-06
4.74883e-05
3.8535e-05
3.39428e-06
-9.98059e-06
3.93264e-05
3.18759e-05
4.03456e-06
-1.07781e-05
3.26734e-05
2.65054e-05
4.57924e-06
-1.16465e-05
2.73738e-05
2.22568e-05
4.82521e-06
-1.24799e-05
2.30902e-05
1.88522e-05
4.69302e-06
-1.30945e-05
1.94668e-05
1.60259e-05
4.24014e-06
-1.33481e-05
1.62795e-05
1.36014e-05
3.59393e-06
-1.31924e-05
1.34456e-05
1.14874e-05
2.88387e-06
-1.26626e-05
1.09576e-05
9.64359e-06
2.2059e-06
-1.18417e-05
8.82272e-06
8.04918e-06
1.61517e-06
-1.08275e-05
7.03502e-06
6.68638e-06
1.13344e-06
-9.71103e-06
5.56989e-06
5.53461e-06
7.60454e-07
-8.56626e-06
4.38984e-06
4.57039e-06
4.83997e-07
-7.44773e-06
3.45185e-06
3.769e-06
2.87093e-07
-6.39197e-06
2.71325e-06
3.10637e-06
1.52331e-07
-5.42079e-06
2.13519e-06
2.56029e-06
6.41073e-08
-4.54479e-06
1.68429e-06
2.11111e-06
9.50426e-09
-3.76663e-06
1.33295e-06
1.74191e-06
-2.16116e-08
-3.08369e-06
1.05897e-06
1.43846e-06
-3.6873e-08
-2.49007e-06
8.44844e-07
1.18892e-06
-4.18415e-08
-1.97808e-06
6.7693e-07
9.8354e-07
-4.04531e-08
-1.53926e-06
5.44715e-07
8.14318e-07
-3.54151e-08
-1.16507e-06
4.40128e-07
6.74739e-07
-2.85352e-08
-8.47323e-07
3.56996e-07
5.59478e-07
-2.09788e-08
-5.78436e-07
2.90592e-07
4.64199e-07
-1.34631e-08
-3.51535e-07
2.37298e-07
3.85354e-07
-6.40059e-09
-1.60511e-07
1.94329e-07
3.20049e-07
1.59538e-07
1.35109e-09
1.7146e-07
8.57727e-10
4.93359e-10
7.10114e-10
1.47613e-10
6.39427e-10
7.06864e-11
5.98468e-10
4.09599e-11
5.67423e-10
3.10446e-11
5.42242e-10
2.51807e-11
5.22179e-10
2.00629e-11
5.05834e-10
1.63447e-11
4.92077e-10
1.37572e-11
4.80309e-10
1.17687e-11
4.70139e-10
1.01693e-11
4.61258e-10
8.88157e-12
4.53425e-10
7.83247e-12
4.46464e-10
6.96138e-12
4.40236e-10
6.22837e-12
4.3463e-10
5.60549e-12
4.29559e-10
5.0713e-12
4.2495e-10
4.60917e-12
4.20743e-10
4.20635e-12
4.1689e-10
3.85279e-12
4.1335e-10
3.54054e-12
4.10087e-10
3.26313e-12
4.07072e-10
3.01531e-12
4.04279e-10
2.79273e-12
4.01687e-10
2.59176e-12
3.99278e-10
2.40932e-12
3.97035e-10
2.24279e-12
3.94945e-10
2.08988e-12
3.92997e-10
1.9486e-12
3.91179e-10
1.81715e-12
3.89485e-10
1.69392e-12
3.87908e-10
1.57746e-12
3.86442e-10
1.46643e-12
3.85082e-10
1.35957e-12
3.83826e-10
1.25575e-12
3.82672e-10
1.15386e-12
3.81619e-10
1.05292e-12
3.80668e-10
9.51978e-13
3.79817e-10
8.50159e-13
3.79071e-10
7.4666e-13
3.7843e-10
6.40745e-13
3.77898e-10
5.31756e-13
3.77479e-10
4.19097e-13
3.77177e-10
3.02268e-13
3.76997e-10
1.80813e-13
3.76942e-10
5.43953e-14
3.7702e-10
-7.73223e-14
3.77234e-10
-2.1451e-13
3.77592e-10
-3.57431e-13
3.78098e-10
-5.06066e-13
3.78759e-10
-6.60711e-13
3.7958e-10
-8.21129e-13
3.80568e-10
-9.87896e-13
3.81728e-10
-1.16044e-12
3.83068e-10
-1.33999e-12
3.84593e-10
-1.5252e-12
3.86312e-10
-1.71873e-12
3.8823e-10
-1.91807e-12
3.90358e-10
-2.12834e-12
3.92704e-10
-2.34634e-12
3.95283e-10
-2.57859e-12
3.98125e-10
-2.84237e-12
4.00155e-10
-2.02956e-12
4.02237e-10
-2.082e-12
4.04373e-10
-2.13593e-12
4.06572e-10
-2.19913e-12
4.08829e-10
-2.25734e-12
4.11144e-10
-2.31484e-12
4.13516e-10
-2.3725e-12
4.15947e-10
-2.43036e-12
4.18438e-10
-2.49164e-12
4.20993e-10
-2.55451e-12
4.23619e-10
-2.62605e-12
4.26319e-10
-2.70048e-12
4.29114e-10
-2.79475e-12
4.32004e-10
-2.8903e-12
4.35039e-10
-3.03482e-12
4.38202e-10
-3.16285e-12
4.41635e-10
-3.43331e-12
4.45226e-10
-3.59008e-12
4.49473e-10
-4.24744e-12
4.53792e-10
-4.31882e-12
4.60274e-10
-6.4823e-12
4.66164e-10
-5.8891e-12
4.84309e-10
-1.81452e-11
5.12796e-10
-2.84866e-11
-4.58717e-09
5.09996e-09
5.22445e-09
3.78103e-07
3.32777e-09
2.39004e-09
2.75575e-09
7.19626e-10
2.48137e-09
3.45069e-10
2.32234e-09
1.99991e-10
2.20189e-09
1.51492e-10
2.10421e-09
1.22865e-10
2.02636e-09
9.79054e-11
1.96295e-09
7.97619e-11
1.90957e-09
6.71324e-11
1.86391e-09
5.74282e-11
1.82446e-09
4.96238e-11
1.79e-09
4.33401e-11
1.75961e-09
3.82206e-11
1.7326e-09
3.39698e-11
1.70844e-09
3.03928e-11
1.68669e-09
2.73533e-11
1.66702e-09
2.47466e-11
1.64913e-09
2.24915e-11
1.63281e-09
2.05258e-11
1.61787e-09
1.88006e-11
1.60413e-09
1.72769e-11
1.59147e-09
1.59232e-11
1.57977e-09
1.47139e-11
1.56894e-09
1.36278e-11
1.55888e-09
1.26472e-11
1.54953e-09
1.1757e-11
1.54083e-09
1.09445e-11
1.53272e-09
1.01984e-11
1.52516e-09
9.50912e-12
1.51811e-09
8.86779e-12
1.51154e-09
8.26663e-12
1.50542e-09
7.69851e-12
1.49973e-09
7.15688e-12
1.49445e-09
6.63568e-12
1.48958e-09
6.12929e-12
1.4851e-09
5.63244e-12
1.48101e-09
5.14021e-12
1.47732e-09
4.64803e-12
1.47402e-09
4.15163e-12
1.47111e-09
3.6471e-12
1.46863e-09
3.13086e-12
1.46656e-09
2.59969e-12
1.46493e-09
2.05071e-12
1.46375e-09
1.48148e-12
1.46304e-09
8.8979e-13
1.46282e-09
2.73994e-13
1.46311e-09
-3.67545e-13
1.46393e-09
-1.03565e-12
1.46531e-09
-1.7316e-12
1.46726e-09
-2.45525e-12
1.4698e-09
-3.20807e-12
1.47297e-09
-3.98881e-12
1.47678e-09
-4.80033e-12
1.48126e-09
-5.63993e-12
1.48643e-09
-6.51342e-12
1.49232e-09
-7.41471e-12
1.49896e-09
-8.35638e-12
1.50637e-09
-9.32651e-12
1.51459e-09
-1.03499e-11
1.52365e-09
-1.14104e-11
1.53362e-09
-1.2541e-11
1.5446e-09
-1.38227e-11
1.55244e-09
-9.86922e-12
1.56048e-09
-1.01265e-11
1.56873e-09
-1.03876e-11
1.57723e-09
-1.06947e-11
1.58595e-09
-1.09775e-11
1.59489e-09
-1.12567e-11
1.60405e-09
-1.15368e-11
1.61344e-09
-1.18173e-11
1.62306e-09
-1.21151e-11
1.63293e-09
-1.24192e-11
1.64307e-09
-1.27673e-11
1.6535e-09
-1.31263e-11
1.66429e-09
-1.35861e-11
1.67544e-09
-1.40448e-11
1.68716e-09
-1.4752e-11
1.69936e-09
-1.53607e-11
1.71262e-09
-1.66903e-11
1.72644e-09
-1.74141e-11
1.74285e-09
-2.06625e-11
1.75942e-09
-2.08815e-11
1.78455e-09
-3.16099e-11
1.8069e-09
-2.82433e-11
1.87643e-09
-8.76791e-11
1.97789e-09
-1.29942e-10
-9.86488e-09
7.2556e-09
1.15371e-08
6.26983e-07
7.37226e-09
6.55488e-09
6.10668e-09
1.9852e-09
5.49857e-09
9.53177e-10
5.14599e-09
5.52579e-10
4.87912e-09
4.1836e-10
4.66272e-09
3.39261e-10
4.49026e-09
2.70368e-10
4.34975e-09
2.20268e-10
4.2315e-09
1.85385e-10
4.13034e-09
1.58585e-10
4.04293e-09
1.37034e-10
3.96659e-09
1.19682e-10
3.89927e-09
1.05544e-10
3.83943e-09
9.38056e-11
3.7859e-09
8.3928e-11
3.73772e-09
7.55344e-11
3.69413e-09
6.8336e-11
3.65451e-09
6.21088e-11
3.61835e-09
5.66806e-11
3.58524e-09
5.19164e-11
3.55481e-09
4.77088e-11
3.52676e-09
4.39708e-11
3.50084e-09
4.06315e-11
3.47684e-09
3.76323e-11
3.45456e-09
3.49245e-11
3.43385e-09
3.24664e-11
3.41457e-09
3.02228e-11
3.39661e-09
2.81629e-11
3.37986e-09
2.62596e-11
3.36424e-09
2.44889e-11
3.34967e-09
2.28292e-11
3.33611e-09
2.12608e-11
3.3235e-09
1.97657e-11
3.31181e-09
1.83271e-11
3.30101e-09
1.69295e-11
3.29109e-09
1.55584e-11
3.28203e-09
1.42002e-11
3.27383e-09
1.28423e-11
3.26651e-09
1.14729e-11
3.26008e-09
1.00813e-11
3.25455e-09
8.6576e-12
3.24996e-09
7.19289e-12
3.24633e-09
5.67923e-12
3.2437e-09
4.1099e-12
3.24211e-09
2.4788e-12
3.24161e-09
7.8142e-13
3.24223e-09
-9.86771e-13
3.24402e-09
-2.82802e-12
3.24703e-09
-4.74587e-12
3.25132e-09
-6.73992e-12
3.25693e-09
-8.81418e-12
3.2639e-09
-1.09652e-11
3.2723e-09
-1.32009e-11
3.28218e-09
-1.55137e-11
3.29358e-09
-1.79198e-11
3.30657e-09
-2.04023e-11
3.32121e-09
-2.29959e-11
3.33755e-09
-2.56675e-11
3.35568e-09
-2.84862e-11
3.37568e-09
-3.14055e-11
3.39766e-09
-3.4519e-11
3.42188e-09
-3.8044e-11
3.43917e-09
-2.71622e-11
3.45692e-09
-2.78741e-11
3.47512e-09
-2.85913e-11
3.49386e-09
-2.94354e-11
3.5131e-09
-3.02131e-11
3.53282e-09
-3.09801e-11
3.55303e-09
-3.17502e-11
3.57374e-09
-3.25201e-11
3.59496e-09
-3.33386e-11
3.61671e-09
-3.41725e-11
3.63907e-09
-3.51291e-11
3.66206e-09
-3.61121e-11
3.68585e-09
-3.73761e-11
3.71044e-09
-3.86294e-11
3.73626e-09
-4.05757e-11
3.76313e-09
-4.22324e-11
3.79234e-09
-4.58961e-11
3.82277e-09
-4.78464e-11
3.85891e-09
-5.68042e-11
3.89533e-09
-5.73028e-11
3.9506e-09
-8.68774e-11
3.99975e-09
-7.73879e-11
4.15065e-09
-2.38584e-10
4.36186e-09
-3.41151e-10
-1.58698e-08
1.03668e-08
2.15282e-08
9.26493e-07
1.38072e-08
1.42759e-08
1.14407e-08
4.35174e-09
1.03013e-08
2.09255e-09
9.64031e-09
1.21354e-09
9.14041e-09
9.18265e-10
8.73515e-09
7.4452e-10
8.41212e-09
5.93396e-10
8.14894e-09
4.83451e-10
7.92745e-09
4.06873e-10
7.73798e-09
3.48051e-10
7.57427e-09
3.00753e-10
7.43128e-09
2.62668e-10
7.30518e-09
2.31639e-10
7.19311e-09
2.05876e-10
7.09284e-09
1.84197e-10
7.0026e-09
1.65776e-10
6.92096e-09
1.49977e-10
6.84676e-09
1.3631e-10
6.77904e-09
1.24397e-10
6.71702e-09
1.13941e-10
6.66002e-09
1.04706e-10
6.60749e-09
9.65024e-11
6.55895e-09
8.91738e-11
6.51399e-09
8.25917e-11
6.47227e-09
7.66489e-11
6.43348e-09
7.12545e-11
6.39737e-09
6.63308e-11
6.36372e-09
6.18103e-11
6.33235e-09
5.76337e-11
6.30309e-09
5.37484e-11
6.27581e-09
5.01068e-11
6.25041e-09
4.66657e-11
6.22679e-09
4.33857e-11
6.20488e-09
4.02301e-11
6.18465e-09
3.71648e-11
6.16605e-09
3.41579e-11
6.14907e-09
3.11798e-11
6.13371e-09
2.82028e-11
6.11998e-09
2.52011e-11
6.10791e-09
2.21511e-11
6.09754e-09
1.90311e-11
6.08891e-09
1.58217e-11
6.08209e-09
1.25056e-11
6.07713e-09
9.06785e-12
6.07411e-09
5.49522e-12
6.07312e-09
1.77781e-12
6.07423e-09
-2.09431e-12
6.07753e-09
-6.12605e-12
6.08311e-09
-1.03252e-11
6.09106e-09
-1.46908e-11
6.10148e-09
-1.92317e-11
6.11445e-09
-2.39403e-11
6.13008e-09
-2.88338e-11
6.14847e-09
-3.38958e-11
6.16971e-09
-3.91615e-11
6.1939e-09
-4.45938e-11
6.22117e-09
-5.02691e-11
6.25161e-09
-5.61141e-11
6.28541e-09
-6.22806e-11
6.32267e-09
-6.86658e-11
6.36362e-09
-7.54759e-11
6.40876e-09
-8.31776e-11
6.44098e-09
-5.93855e-11
6.47405e-09
-6.09486e-11
6.50798e-09
-6.25147e-11
6.5429e-09
-6.4357e-11
6.57874e-09
-6.60553e-11
6.61549e-09
-6.77296e-11
6.65315e-09
-6.94102e-11
6.69172e-09
-7.10894e-11
6.73125e-09
-7.28744e-11
6.77177e-09
-7.46916e-11
6.81342e-09
-7.67766e-11
6.85622e-09
-7.89167e-11
6.90052e-09
-8.16704e-11
6.94629e-09
-8.43971e-11
6.99435e-09
-8.86351e-11
7.04435e-09
-9.22386e-11
7.09867e-09
-1.00208e-10
7.15528e-09
-1.0446e-10
7.22238e-09
-1.23904e-10
7.29017e-09
-1.25093e-10
7.39239e-09
-1.89097e-10
7.48437e-09
-1.69365e-10
7.75812e-09
-5.12334e-10
8.13108e-09
-7.14103e-10
-2.26063e-08
1.48675e-08
3.70139e-08
1.28656e-06
2.38422e-08
2.74477e-08
1.97632e-08
8.43072e-09
1.77948e-08
4.06095e-09
1.66522e-08
2.35617e-09
1.57887e-08
1.78172e-09
1.5089e-08
1.44428e-09
1.45311e-08
1.15126e-09
1.40766e-08
9.37985e-10
1.36941e-08
7.89377e-10
1.33669e-08
6.75245e-10
1.30841e-08
5.83484e-10
1.28372e-08
5.09597e-10
1.26194e-08
4.49395e-10
1.24259e-08
3.99412e-10
1.22527e-08
3.57353e-10
1.20969e-08
3.21613e-10
1.19559e-08
2.90963e-10
1.18278e-08
2.64448e-10
1.17109e-08
2.41335e-10
1.16037e-08
2.2105e-10
1.15053e-08
2.03135e-10
1.14146e-08
1.87219e-10
1.13308e-08
1.73001e-10
1.12531e-08
1.60232e-10
1.11811e-08
1.48703e-10
1.11141e-08
1.38238e-10
1.10517e-08
1.28687e-10
1.09936e-08
1.19918e-10
1.09394e-08
1.11816e-10
1.08889e-08
1.0428e-10
1.08418e-08
9.72175e-11
1.07979e-08
9.05444e-11
1.07571e-08
8.41842e-11
1.07193e-08
7.8066e-11
1.06843e-08
7.21236e-11
1.06522e-08
6.62956e-11
1.06229e-08
6.05242e-11
1.05963e-08
5.47559e-11
1.05726e-08
4.89409e-11
1.05517e-08
4.30332e-11
1.05337e-08
3.6991e-11
1.05188e-08
3.07769e-11
1.05069e-08
2.43568e-11
1.04983e-08
1.77025e-11
1.0493e-08
1.07879e-11
1.04912e-08
3.59396e-12
1.0493e-08
-3.89847e-12
1.04986e-08
-1.16989e-11
1.05081e-08
-1.98225e-11
1.05216e-08
-2.82673e-11
1.05395e-08
-3.70504e-11
1.05617e-08
-4.6157e-11
1.05885e-08
-5.56205e-11
1.062e-08
-6.54087e-11
1.06564e-08
-7.55901e-11
1.06979e-08
-8.60925e-11
1.07447e-08
-9.70632e-11
1.07969e-08
-1.08361e-10
1.08549e-08
-1.20278e-10
1.09189e-08
-1.32616e-10
1.09892e-08
-1.45773e-10
1.10666e-08
-1.60637e-10
1.11219e-08
-1.14688e-10
1.11787e-08
-1.17719e-10
1.12369e-08
-1.20741e-10
1.12969e-08
-1.24291e-10
1.13584e-08
-1.27567e-10
1.14214e-08
-1.30794e-10
1.14861e-08
-1.34032e-10
1.15522e-08
-1.37266e-10
1.16201e-08
-1.40702e-10
1.16896e-08
-1.44199e-10
1.1761e-08
-1.48208e-10
1.18344e-08
-1.52324e-10
1.19104e-08
-1.57613e-10
1.19888e-08
-1.62858e-10
1.20712e-08
-1.70985e-10
1.21569e-08
-1.7793e-10
1.22498e-08
-1.93173e-10
1.23468e-08
-2.01452e-10
1.24614e-08
-2.38493e-10
1.25777e-08
-2.41366e-10
1.27513e-08
-3.62683e-10
1.29102e-08
-3.28339e-10
1.33639e-08
-9.65943e-10
1.39675e-08
-1.31779e-09
-3.00323e-08
2.13936e-08
6.06406e-08
1.71888e-06
3.92638e-08
4.88245e-08
3.25611e-08
1.51334e-08
2.93177e-08
7.30433e-09
2.74335e-08
4.24042e-09
2.60111e-08
3.20411e-09
2.48588e-08
2.59659e-09
2.394e-08
2.07008e-09
2.31913e-08
1.68666e-09
2.25613e-08
1.41936e-09
2.20224e-08
1.21412e-09
2.15568e-08
1.04913e-09
2.11501e-08
9.16278e-10
2.07915e-08
8.08029e-10
2.04727e-08
7.18154e-10
2.01875e-08
6.4253e-10
1.99309e-08
5.78267e-10
1.96987e-08
5.23156e-10
1.94877e-08
4.7548e-10
1.92951e-08
4.33923e-10
1.91187e-08
3.97449e-10
1.89566e-08
3.65237e-10
1.88072e-08
3.36621e-10
1.86691e-08
3.11058e-10
1.85413e-08
2.88099e-10
1.84226e-08
2.67371e-10
1.83123e-08
2.48556e-10
1.82096e-08
2.31385e-10
1.81139e-08
2.1562e-10
1.80246e-08
2.01057e-10
1.79414e-08
1.8751e-10
1.78638e-08
1.74816e-10
1.77915e-08
1.62823e-10
1.77243e-08
1.51394e-10
1.7662e-08
1.40402e-10
1.76044e-08
1.29727e-10
1.75514e-08
1.1926e-10
1.7503e-08
1.08897e-10
1.74593e-08
9.85408e-11
1.74201e-08
8.81033e-11
1.73856e-08
7.75019e-11
1.7356e-08
6.66612e-11
1.73312e-08
5.55142e-11
1.73116e-08
4.40001e-11
1.72972e-08
3.20678e-11
1.72883e-08
1.96708e-11
1.72852e-08
6.77505e-12
1.72879e-08
-6.654e-12
1.72969e-08
-2.06334e-11
1.73122e-08
-3.519e-11
1.73343e-08
-5.03206e-11
1.73633e-08
-6.60556e-11
1.73995e-08
-8.23685e-11
1.74432e-08
-9.93187e-11
1.74946e-08
-1.16849e-10
1.75541e-08
-1.3508e-10
1.76219e-08
-1.53885e-10
1.76984e-08
-1.73525e-10
1.77838e-08
-1.93749e-10
1.78785e-08
-2.15076e-10
1.79831e-08
-2.37155e-10
1.8098e-08
-2.6069e-10
1.82246e-08
-2.87248e-10
1.8315e-08
-2.05084e-10
1.84078e-08
-2.10529e-10
1.8503e-08
-2.15927e-10
1.8601e-08
-2.22257e-10
1.87015e-08
-2.28105e-10
1.88046e-08
-2.33863e-10
1.89102e-08
-2.39637e-10
1.90183e-08
-2.45402e-10
1.91291e-08
-2.5152e-10
1.92427e-08
-2.57748e-10
1.93593e-08
-2.64876e-10
1.94792e-08
-2.72204e-10
1.96032e-08
-2.81591e-10
1.97313e-08
-2.90933e-10
1.98656e-08
-3.05325e-10
2.00054e-08
-3.17738e-10
2.01569e-08
-3.44626e-10
2.03151e-08
-3.59656e-10
2.05012e-08
-4.24612e-10
2.06912e-08
-4.31299e-10
2.0971e-08
-6.42552e-10
2.1233e-08
-5.9026e-10
2.19426e-08
-1.67558e-09
2.28656e-08
-2.24083e-09
-3.8043e-08
3.08763e-08
9.62425e-08
2.23708e-06
6.27025e-08
8.23645e-08
5.20262e-08
2.58097e-08
4.68434e-08
1.24871e-08
4.38295e-08
7.25429e-09
4.15572e-08
5.47643e-09
3.97172e-08
4.43659e-09
3.82497e-08
3.53759e-09
3.70538e-08
2.8825e-09
3.60477e-08
2.42555e-09
3.5187e-08
2.07476e-09
3.44433e-08
1.79283e-09
3.37938e-08
1.56579e-09
3.32211e-08
1.3808e-09
3.2712e-08
1.22721e-09
3.22566e-08
1.09798e-09
3.18467e-08
9.88159e-10
3.14758e-08
8.93981e-10
3.11388e-08
8.1251e-10
3.08312e-08
7.41494e-10
3.05495e-08
6.79167e-10
3.02906e-08
6.24123e-10
3.0052e-08
5.75222e-10
2.98316e-08
5.3154e-10
2.96273e-08
4.92309e-10
2.94378e-08
4.56891e-10
2.92616e-08
4.24743e-10
2.90976e-08
3.95403e-10
2.89448e-08
3.68469e-10
2.88022e-08
3.43589e-10
2.86693e-08
3.20448e-10
2.85454e-08
2.98765e-10
2.84299e-08
2.78283e-10
2.83225e-08
2.58767e-10
2.82229e-08
2.4e-10
2.81309e-08
2.21779e-10
2.80462e-08
2.03917e-10
2.79689e-08
1.86235e-10
2.78988e-08
1.68572e-10
2.78362e-08
1.50773e-10
2.7781e-08
1.327e-10
2.77334e-08
1.14223e-10
2.76937e-08
9.52287e-11
2.76621e-08
7.56132e-11
2.76389e-08
5.52897e-11
2.76244e-08
3.41789e-11
2.7619e-08
1.22226e-11
2.76229e-08
-1.06378e-11
2.76368e-08
-3.44313e-11
2.76608e-08
-5.92036e-11
2.76954e-08
-8.49495e-11
2.77411e-08
-1.1172e-10
2.77982e-08
-1.39471e-10
2.78672e-08
-1.68301e-10
2.79484e-08
-1.98114e-10
2.80424e-08
-2.29115e-10
2.81496e-08
-2.61087e-10
2.82706e-08
-2.94471e-10
2.84057e-08
-3.28845e-10
2.85557e-08
-3.65081e-10
2.87211e-08
-4.02593e-10
2.8903e-08
-4.42561e-10
2.91033e-08
-4.87603e-10
2.92464e-08
-3.48131e-10
2.93933e-08
-3.5742e-10
2.95439e-08
-3.66577e-10
2.96989e-08
-3.77285e-10
2.9858e-08
-3.87193e-10
3.00211e-08
-3.9694e-10
3.01882e-08
-4.06706e-10
3.03592e-08
-4.16455e-10
3.05345e-08
-4.26785e-10
3.0714e-08
-4.37307e-10
3.08985e-08
-4.49319e-10
3.1088e-08
-4.61693e-10
3.12838e-08
-4.77477e-10
3.14862e-08
-4.93268e-10
3.16982e-08
-5.17388e-10
3.1919e-08
-5.38469e-10
3.21577e-08
-5.83303e-10
3.24074e-08
-6.09345e-10
3.26996e-08
-7.16817e-10
3.29998e-08
-7.31547e-10
3.34351e-08
-1.07782e-09
3.38527e-08
-1.00786e-09
3.49167e-08
-2.7396e-09
3.62689e-08
-3.59305e-09
-4.64544e-08
4.46803e-08
1.4934e-07
2.85685e-06
9.80196e-08
1.33685e-07
8.13809e-08
4.24484e-08
7.32732e-08
2.05948e-08
6.85528e-08
1.19747e-08
6.49992e-08
9.03009e-09
6.21232e-08
7.31254e-09
5.98288e-08
5.83199e-09
5.7959e-08
4.75232e-09
5.63858e-08
3.99867e-09
5.50403e-08
3.42028e-09
5.38776e-08
2.95551e-09
5.28622e-08
2.58123e-09
5.19667e-08
2.27625e-09
5.11709e-08
2.02305e-09
5.04589e-08
1.81e-09
4.98181e-08
1.62896e-09
4.92383e-08
1.47371e-09
4.87115e-08
1.3394e-09
4.82306e-08
1.22233e-09
4.77902e-08
1.11959e-09
4.73855e-08
1.02885e-09
4.70125e-08
9.48237e-10
4.66678e-08
8.7623e-10
4.63485e-08
8.11561e-10
4.60522e-08
7.53178e-10
4.57768e-08
7.00189e-10
4.55204e-08
6.5183e-10
4.52814e-08
6.07439e-10
4.50585e-08
5.66436e-10
4.48507e-08
5.28304e-10
4.46569e-08
4.92579e-10
4.44763e-08
4.58838e-10
4.43084e-08
4.26695e-10
4.41526e-08
3.95792e-10
4.40086e-08
3.65796e-10
4.38761e-08
3.36397e-10
4.3755e-08
3.07306e-10
4.36454e-08
2.78252e-10
4.35472e-08
2.48986e-10
4.34606e-08
2.19276e-10
4.33859e-08
1.88914e-10
4.33234e-08
1.57709e-10
4.32736e-08
1.25493e-10
4.32367e-08
9.21231e-11
4.32135e-08
5.74685e-11
4.32043e-08
2.14338e-11
4.32097e-08
-1.60769e-11
4.32304e-08
-5.51115e-11
4.3267e-08
-9.57445e-11
4.332e-08
-1.37968e-10
4.33901e-08
-1.81864e-10
4.3478e-08
-2.2736e-10
4.35843e-08
-2.74619e-10
4.37097e-08
-3.23482e-10
4.38548e-08
-3.74279e-10
4.40204e-08
-4.26662e-10
4.42072e-08
-4.81341e-10
4.4416e-08
-5.37639e-10
4.46479e-08
-5.96959e-10
4.49037e-08
-6.58368e-10
4.51849e-08
-7.23753e-10
4.54946e-08
-7.97326e-10
4.57157e-08
-5.69269e-10
4.59429e-08
-5.84546e-10
4.61758e-08
-5.99507e-10
4.64154e-08
-6.16945e-10
4.66613e-08
-6.33106e-10
4.69134e-08
-6.48991e-10
4.71716e-08
-6.6489e-10
4.74359e-08
-6.80757e-10
4.77066e-08
-6.97537e-10
4.7984e-08
-7.14643e-10
4.82687e-08
-7.34108e-10
4.85613e-08
-7.54215e-10
4.88635e-08
-7.79716e-10
4.91757e-08
-8.0541e-10
4.95025e-08
-8.44217e-10
4.98428e-08
-8.78722e-10
5.02098e-08
-9.50385e-10
5.05945e-08
-9.94033e-10
5.10419e-08
-1.16413e-09
5.15052e-08
-1.19485e-09
5.21636e-08
-1.73626e-09
5.28129e-08
-1.65715e-09
5.43531e-08
-4.27978e-09
5.62654e-08
-5.50536e-09
-5.49925e-08
6.48036e-08
2.27832e-07
3.59601e-06
1.50868e-07
2.10649e-07
1.25352e-07
6.79641e-08
1.12863e-07
3.30838e-08
1.05581e-07
1.92566e-08
1.00109e-07
1.45023e-08
9.56833e-08
1.17382e-08
9.21514e-08
9.36394e-09
8.92727e-08
7.63101e-09
8.68511e-08
6.42029e-09
8.47799e-08
5.49144e-09
8.29902e-08
4.74526e-09
8.14271e-08
4.14431e-09
8.00487e-08
3.65461e-09
7.88237e-08
3.24807e-09
7.77277e-08
2.906e-09
7.67413e-08
2.61533e-09
7.5849e-08
2.36606e-09
7.5038e-08
2.15042e-09
7.42978e-08
1.96246e-09
7.36199e-08
1.7975e-09
7.2997e-08
1.65182e-09
7.24228e-08
1.5224e-09
7.18922e-08
1.4068e-09
7.14008e-08
1.30297e-09
7.09448e-08
1.20925e-09
7.05208e-08
1.12418e-09
7.0126e-08
1.04656e-09
6.97582e-08
9.75304e-10
6.94151e-08
9.09496e-10
6.90951e-08
8.48304e-10
6.87967e-08
7.90983e-10
6.85187e-08
7.36857e-10
6.82601e-08
6.85306e-10
6.80201e-08
6.35755e-10
6.77982e-08
5.87675e-10
6.75941e-08
5.40567e-10
6.74074e-08
4.93968e-10
6.72382e-08
4.47447e-10
6.70866e-08
4.00603e-10
6.69528e-08
3.53069e-10
6.68372e-08
3.04507e-10
6.67404e-08
2.54616e-10
6.66627e-08
2.03125e-10
6.66051e-08
1.49806e-10
6.65681e-08
9.44506e-11
6.65527e-08
3.69064e-11
6.65596e-08
-2.29797e-11
6.65898e-08
-8.52846e-11
6.66442e-08
-1.50126e-10
6.67237e-08
-2.17493e-10
6.68294e-08
-2.87514e-10
6.69621e-08
-3.60076e-10
6.71229e-08
-4.35429e-10
6.73127e-08
-5.13329e-10
6.75327e-08
-5.94291e-10
6.77838e-08
-6.77767e-10
6.80673e-08
-7.6487e-10
6.83842e-08
-8.54544e-10
6.87362e-08
-9.4898e-10
6.91245e-08
-1.04674e-09
6.95515e-08
-1.15074e-09
7.00218e-08
-1.26756e-09
7.03575e-08
-9.05016e-10
7.07024e-08
-9.29467e-10
7.10562e-08
-9.53233e-10
7.142e-08
-9.80811e-10
7.17933e-08
-1.00643e-09
7.21759e-08
-1.03158e-09
7.25677e-08
-1.05671e-09
7.29688e-08
-1.0818e-09
7.33795e-08
-1.10825e-09
7.38001e-08
-1.13525e-09
7.42318e-08
-1.16585e-09
7.46752e-08
-1.19757e-09
7.5133e-08
-1.23751e-09
7.56057e-08
-1.2781e-09
7.61e-08
-1.33856e-09
7.66148e-08
-1.39346e-09
7.71686e-08
-1.50418e-09
7.77501e-08
-1.57552e-09
7.84211e-08
-1.83509e-09
7.91223e-08
-1.89604e-09
8.00954e-08
-2.70938e-09
8.10837e-08
-2.64539e-09
8.32428e-08
-6.43891e-09
8.58647e-08
-8.12725e-09
-6.32963e-08
9.41686e-08
3.42928e-07
4.47421e-06
2.29495e-07
3.24082e-07
1.90855e-07
1.06605e-07
1.7184e-07
5.2098e-08
1.60734e-07
3.03631e-08
1.52405e-07
2.28311e-08
1.45675e-07
1.84685e-08
1.40301e-07
1.47374e-08
1.35921e-07
1.20112e-08
1.32237e-07
1.01046e-08
1.29086e-07
8.64234e-09
1.26363e-07
7.46808e-09
1.23985e-07
6.52229e-09
1.21888e-07
5.75155e-09
1.20024e-07
5.1117e-09
1.18357e-07
4.57335e-09
1.16856e-07
4.1159e-09
1.15499e-07
3.72359e-09
1.14265e-07
3.38422e-09
1.13139e-07
3.08842e-09
1.12108e-07
2.82881e-09
1.1116e-07
2.59954e-09
1.10287e-07
2.39587e-09
1.0948e-07
2.21394e-09
1.08732e-07
2.05056e-09
1.08038e-07
1.90308e-09
1.07393e-07
1.76922e-09
1.06793e-07
1.64709e-09
1.06233e-07
1.53499e-09
1.05711e-07
1.43147e-09
1.05224e-07
1.33522e-09
1.0477e-07
1.24508e-09
1.04347e-07
1.15999e-09
1.03953e-07
1.07896e-09
1.03588e-07
1.00111e-09
1.0325e-07
9.25588e-10
1.02939e-07
8.51627e-10
1.02654e-07
7.78498e-10
1.02396e-07
7.05523e-10
1.02165e-07
6.32076e-10
1.0196e-07
5.57581e-10
1.01783e-07
4.81508e-10
1.01635e-07
4.03389e-10
1.01515e-07
3.22796e-10
1.01425e-07
2.39374e-10
1.01367e-07
1.52797e-10
1.01341e-07
6.28264e-11
1.01349e-07
-3.07772e-11
1.01392e-07
-1.28134e-10
1.01471e-07
-2.29428e-10
1.01588e-07
-3.34641e-10
1.01745e-07
-4.43972e-10
1.01942e-07
-5.57247e-10
1.02181e-07
-6.74846e-10
1.02465e-07
-7.96396e-10
1.02793e-07
-9.22678e-10
1.03168e-07
-1.05286e-09
1.03592e-07
-1.18864e-09
1.04065e-07
-1.32841e-09
1.04592e-07
-1.47549e-09
1.05173e-07
-1.62777e-09
1.05812e-07
-1.78959e-09
1.06515e-07
-1.97095e-09
1.07017e-07
-1.40726e-09
1.07534e-07
-1.44558e-09
1.08063e-07
-1.4825e-09
1.08607e-07
-1.52512e-09
1.09165e-07
-1.5648e-09
1.09738e-07
-1.60371e-09
1.10323e-07
-1.64253e-09
1.10923e-07
-1.68126e-09
1.11537e-07
-1.72198e-09
1.12165e-07
-1.76359e-09
1.1281e-07
-1.8105e-09
1.13471e-07
-1.85936e-09
1.14154e-07
-1.9203e-09
1.14859e-07
-1.98293e-09
1.15595e-07
-2.07459e-09
1.16362e-07
-2.15996e-09
1.17184e-07
-2.32613e-09
1.18048e-07
-2.44039e-09
1.19037e-07
-2.82395e-09
1.20081e-07
-2.93955e-09
1.21489e-07
-4.11737e-09
1.22963e-07
-4.11963e-09
1.25897e-07
-9.37244e-09
1.29392e-07
-1.16221e-08
-7.09422e-08
1.37037e-07
5.10406e-07
5.5123e-06
3.45895e-07
4.88592e-07
2.87979e-07
1.64521e-07
2.59294e-07
8.07828e-08
2.42502e-07
4.71558e-08
2.2994e-07
3.53923e-08
2.198e-07
2.8609e-08
2.117e-07
2.28376e-08
2.05095e-07
1.86154e-08
1.99541e-07
1.56586e-08
1.94792e-07
1.3392e-08
1.90687e-07
1.15725e-08
1.87103e-07
1.01069e-08
1.83942e-07
8.9125e-09
1.81132e-07
7.92095e-09
1.78619e-07
7.08672e-09
1.76357e-07
6.37784e-09
1.74311e-07
5.76992e-09
1.72451e-07
5.24404e-09
1.70754e-07
4.78566e-09
1.69199e-07
4.38338e-09
1.67771e-07
4.02812e-09
1.66454e-07
3.71253e-09
1.65237e-07
3.43064e-09
1.6411e-07
3.17749e-09
1.63064e-07
2.94898e-09
1.62092e-07
2.74161e-09
1.61187e-07
2.5524e-09
1.60343e-07
2.37876e-09
1.59556e-07
2.21843e-09
1.58822e-07
2.0694e-09
1.58137e-07
1.92985e-09
1.57499e-07
1.79815e-09
1.56905e-07
1.67279e-09
1.56354e-07
1.55238e-09
1.55844e-07
1.43564e-09
1.55374e-07
1.32136e-09
1.54944e-07
1.20843e-09
1.54554e-07
1.09579e-09
1.54203e-07
9.82493e-10
1.53893e-07
8.6764e-10
1.53625e-07
7.5042e-10
1.53398e-07
6.30109e-10
1.53215e-07
5.06052e-10
1.53076e-07
3.77699e-10
1.52985e-07
2.4455e-10
1.52941e-07
1.06237e-10
1.52948e-07
-3.76067e-11
1.53007e-07
-1.87167e-10
1.53121e-07
-3.42724e-10
1.5329e-07
-5.04252e-10
1.53519e-07
-6.72048e-10
1.53807e-07
-8.45854e-10
1.54158e-07
-1.02623e-09
1.54575e-07
-1.21263e-09
1.55058e-07
-1.40619e-09
1.55611e-07
-1.6057e-09
1.56236e-07
-1.81365e-09
1.56935e-07
-2.02771e-09
1.57712e-07
-2.25277e-09
1.5857e-07
-2.48577e-09
1.59514e-07
-2.73307e-09
1.60552e-07
-3.0095e-09
1.61294e-07
-2.14883e-09
1.62056e-07
-2.20789e-09
1.62838e-07
-2.26423e-09
1.63641e-07
-2.3288e-09
1.64466e-07
-2.38912e-09
1.6531e-07
-2.44816e-09
1.66175e-07
-2.50694e-09
1.67059e-07
-2.56556e-09
1.67964e-07
-2.62696e-09
1.6889e-07
-2.68981e-09
1.6984e-07
-2.7602e-09
1.70814e-07
-2.8339e-09
1.71819e-07
-2.92481e-09
1.72855e-07
-3.01946e-09
1.73936e-07
-3.15512e-09
1.75061e-07
-3.28528e-09
1.76263e-07
-3.52812e-09
1.77531e-07
-3.70783e-09
1.78965e-07
-4.25762e-09
1.80493e-07
-4.46799e-09
1.82489e-07
-6.11304e-09
1.84643e-07
-6.27417e-09
1.88503e-07
-1.32324e-08
1.93042e-07
-1.61606e-08
-7.74999e-08
1.996e-07
7.52234e-07
6.731e-06
5.17426e-07
7.23401e-07
4.31404e-07
2.50543e-07
3.88455e-07
1.23732e-07
3.63241e-07
7.23695e-08
3.44436e-07
5.41976e-08
3.29273e-07
4.37719e-08
3.17153e-07
3.49573e-08
3.0727e-07
2.84991e-08
2.98959e-07
2.39692e-08
2.91852e-07
2.04986e-08
2.85711e-07
1.77139e-08
2.80347e-07
1.54706e-08
2.75618e-07
1.36421e-08
2.71414e-07
1.21243e-08
2.67654e-07
1.08474e-08
2.64269e-07
9.76229e-09
2.61207e-07
8.83176e-09
2.58425e-07
8.0268e-09
2.55885e-07
7.32519e-09
2.53559e-07
6.70943e-09
2.51422e-07
6.16566e-09
2.49452e-07
5.68262e-09
2.47631e-07
5.25117e-09
2.45945e-07
4.86373e-09
2.4438e-07
4.51401e-09
2.42925e-07
4.19667e-09
2.4157e-07
3.90714e-09
2.40307e-07
3.64148e-09
2.39129e-07
3.39623e-09
2.38031e-07
3.1683e-09
2.37005e-07
2.95494e-09
2.3605e-07
2.75364e-09
2.35161e-07
2.56211e-09
2.34335e-07
2.37824e-09
2.3357e-07
2.20006e-09
2.32866e-07
2.02574e-09
2.32221e-07
1.85358e-09
2.31635e-07
1.682e-09
2.31108e-07
1.50952e-09
2.30641e-07
1.33479e-09
2.30235e-07
1.15658e-09
2.29891e-07
9.73793e-10
2.29612e-07
7.85426e-10
2.29399e-07
5.90647e-10
2.29255e-07
3.887e-10
2.29182e-07
1.79022e-10
2.29184e-07
-3.89371e-11
2.29262e-07
-2.65465e-10
2.2942e-07
-5.00978e-10
2.29662e-07
-7.45445e-10
2.29989e-07
-9.99299e-10
2.30405e-07
-1.26216e-09
2.30914e-07
-1.53485e-09
2.31518e-07
-1.81655e-09
2.3222e-07
-2.10893e-09
2.33025e-07
-2.41021e-09
2.33935e-07
-2.72403e-09
2.34954e-07
-3.047e-09
2.36087e-07
-3.38622e-09
2.37339e-07
-3.73745e-09
2.38715e-07
-4.1096e-09
2.4023e-07
-4.5243e-09
2.41312e-07
-3.2305e-09
2.42424e-07
-3.32025e-09
2.43565e-07
-3.40491e-09
2.44737e-07
-3.5011e-09
2.45939e-07
-3.59127e-09
2.47171e-07
-3.67935e-09
2.4843e-07
-3.76681e-09
2.49719e-07
-3.854e-09
2.51037e-07
-3.94488e-09
2.52385e-07
-4.03807e-09
2.53766e-07
-4.14163e-09
2.55183e-07
-4.25075e-09
2.56642e-07
-4.38354e-09
2.58146e-07
-4.52392e-09
2.59712e-07
-4.72012e-09
2.61341e-07
-4.91499e-09
2.63074e-07
-5.26083e-09
2.64905e-07
-5.53857e-09
2.6695e-07
-6.30297e-09
2.69153e-07
-6.67064e-09
2.71923e-07
-8.88309e-09
2.75002e-07
-9.35321e-09
2.79914e-07
-1.81437e-08
2.85665e-07
-2.19116e-08
-8.26203e-08
2.90785e-07
1.0986e-06
8.14839e-06
7.69055e-07
1.05294e-06
6.42405e-07
3.77192e-07
5.78517e-07
1.8762e-07
5.40878e-07
1.10009e-07
5.129e-07
8.21758e-08
4.90372e-07
6.62989e-08
4.72353e-07
5.29768e-08
4.57653e-07
4.31988e-08
4.45295e-07
3.6327e-08
4.34729e-07
3.10654e-08
4.25597e-07
2.68459e-08
4.17621e-07
2.34462e-08