/*--------------------------------*- C++ -*----------------------------------*\
| =========                 |                                                 |
| \\      /  F ield         | OpenFOAM: The Open Source CFD Toolbox           |
|  \\    /   O peration     | Version:  2506                                  |
|   \\  /    A nd           | Website:  www.openfoam.com                      |
|    \\/     M anipulation  |                                                 |
\*---------------------------------------------------------------------------*/
FoamFile
{
    version     2.0;
    format      ascii;
    arch        "LSB;label=32;scalar=64";
    class       surfaceScalarField;
    location    "1000";
    object      phi;
}
// * * * * * * * * * * * * * * * * * * * * * * * * * * * * * * * * * * * * * //

dimensions      [0 3 -1 0 0 0 0];

oriented        oriented;

internalField   nonuniform List<scalar> 
40747
(
1.43396e-07
1.93267e-07
7.50041e-08
6.83917e-08
1.73827e-07
4.2671e-07
1.65463e-07
8.33678e-08
2.10851e-07
7.08545e-07
2.74516e-07
1.01799e-07
2.55961e-07
1.0486e-06
4.05915e-07
1.24562e-07
3.11017e-07
1.4586e-06
5.64145e-07
1.52787e-07
3.78347e-07
1.95249e-06
7.54547e-07
1.87946e-07
4.60878e-07
2.54677e-06
9.83458e-07
2.31967e-07
5.62316e-07
3.26092e-06
1.25837e-06
2.87404e-07
6.8738e-07
4.11771e-06
1.58809e-06
3.57657e-07
8.42123e-07
5.14362e-06
1.98291e-06
4.47303e-07
1.03436e-06
6.36906e-06
2.45474e-06
5.62532e-07
1.27427e-06
7.82854e-06
3.01723e-06
7.11786e-07
1.57515e-06
9.56048e-06
3.68575e-06
9.06629e-07
1.95455e-06
1.16066e-05
4.47731e-06
1.16299e-06
2.43571e-06
1.40106e-05
5.41017e-06
1.50285e-06
3.04955e-06
1.68158e-05
6.50307e-06
1.95665e-06
3.83735e-06
2.00611e-05
7.77394e-06
2.56649e-06
4.85429e-06
2.37749e-05
9.23769e-06
3.39054e-06
6.17405e-06
2.79659e-05
1.09029e-05
4.50887e-06
7.89468e-06
3.26102e-05
1.27666e-05
6.03096e-06
1.01458e-05
3.7633e-05
1.48073e-05
8.10504e-06
1.30968e-05
4.28862e-05
1.69749e-05
1.09292e-05
1.69657e-05
4.81189e-05
1.91778e-05
1.47628e-05
2.20272e-05
5.29458e-05
2.12677e-05
1.99372e-05
2.86159e-05
5.6816e-05
2.30236e-05
2.68599e-05
3.71237e-05
5.89916e-05
2.41401e-05
3.60071e-05
4.79836e-05
5.85494e-05
2.42275e-05
4.78961e-05
6.16398e-05
5.44218e-05
2.28373e-05
6.30299e-05
7.85052e-05
4.54907e-05
1.95252e-05
8.18171e-05
9.88936e-05
3.07628e-05
1.39259e-05
0.000104493
9.69843e-05
1.44236e-05
7.50451e-06
0.000103405
9.79604e-05
-2.89177e-06
6.17192e-07
0.000104847
9.79062e-05
-2.01529e-05
-6.25699e-06
0.00010478
9.6809e-05
-3.63169e-05
-1.26479e-05
0.0001032
9.5586e-05
-5.02905e-05
-1.80819e-05
0.00010102
7.63376e-05
-5.87351e-05
-2.13866e-05
7.96421e-05
6.03232e-05
-6.25784e-05
-2.28955e-05
6.18319e-05
4.72705e-05
-6.28636e-05
-2.30086e-05
4.73835e-05
3.68158e-05
-6.05926e-05
-2.21301e-05
3.59372e-05
2.85632e-05
-5.66395e-05
-2.06147e-05
2.70477e-05
2.21226e-05
-5.17121e-05
-1.87455e-05
2.02533e-05
1.71374e-05
-4.63467e-05
-1.67313e-05
1.51233e-05
1.32991e-05
-4.09258e-05
-1.47166e-05
1.12844e-05
1.03518e-05
-3.57045e-05
-1.27938e-05
8.42897e-06
8.08988e-06
-3.08392e-05
-1.10166e-05
6.3127e-06
6.35164e-06
-2.64135e-05
-9.41149e-06
4.74647e-06
5.01209e-06
-2.246e-05
-7.98624e-06
3.58684e-06
3.97569e-06
-1.89772e-05
-6.73705e-06
2.7265e-06
3.16999e-06
-1.59426e-05
-5.6531e-06
2.08604e-06
2.54028e-06
-1.33212e-05
-4.71989e-06
1.60707e-06
2.04533e-06
-1.10726e-05
-3.92143e-06
1.24687e-06
1.65405e-06
-9.15458e-06
-3.24165e-06
9.74274e-07
1.34299e-06
-7.52596e-06
-2.66521e-06
7.66548e-07
1.09434e-06
-6.14823e-06
-2.17798e-06
6.07104e-07
8.94574e-07
-4.9863e-06
-1.76721e-06
4.83812e-07
7.33321e-07
-4.00882e-06
-1.42166e-06
3.87767e-07
6.026e-07
-3.18822e-06
-1.13147e-06
3.12407e-07
4.96223e-07
-2.50049e-06
-8.88116e-07
2.52871e-07
4.09364e-07
-1.92492e-06
-6.84281e-07
2.0553e-07
3.38229e-07
-1.4438e-06
-5.13712e-07
1.6766e-07
2.79823e-07
-1.042e-06
-3.71093e-07
1.37203e-07
2.31758e-07
-7.06724e-07
-2.51922e-07
1.12587e-07
1.92129e-07
-4.27138e-07
-1.52398e-07
9.2605e-08
1.59399e-07
-1.94121e-07
-6.93208e-08
7.63217e-08
1.32329e-07
6.3008e-08
3.14563e-10
6.80771e-08
2.84409e-10
3.01538e-11
2.70552e-10
1.38568e-11
2.68295e-10
2.25755e-12
2.65416e-10
2.87816e-12
2.64375e-10
1.04145e-12
2.63562e-10
8.13364e-13
2.63135e-10
4.26728e-13
2.62852e-10
2.82797e-13
2.62683e-10
1.69549e-13
2.62573e-10
1.09714e-13
2.62503e-10
6.97512e-14
2.62457e-10
4.57276e-14
2.62427e-10
3.01406e-14
2.62407e-10
2.02171e-14
2.62393e-10
1.37091e-14
2.62384e-10
9.42139e-15
2.62377e-10
6.54829e-15
2.62373e-10
4.60226e-15
2.6237e-10
3.26498e-15
2.62367e-10
2.3322e-15
2.62366e-10
1.66834e-15
2.62364e-10
1.18174e-15
2.62364e-10
8.07815e-16
2.62363e-10
4.98198e-16
2.62363e-10
2.13319e-16
2.62363e-10
-8.31787e-17
2.62363e-10
-4.28807e-16
2.62364e-10
-8.65816e-16
2.62366e-10
-1.44454e-15
2.62368e-10
-2.22684e-15
2.62371e-10
-3.28934e-15
2.62376e-10
-4.72683e-15
2.62383e-10
-6.65557e-15
2.62392e-10
-9.21647e-15
2.62404e-10
-1.25783e-14
2.62421e-10
-1.69402e-14
2.62444e-10
-2.2534e-14
2.62473e-10
-2.96257e-14
2.62512e-10
-3.85161e-14
2.62562e-10
-4.95409e-14
2.62625e-10
-6.3069e-14
2.62704e-10
-7.95008e-14
2.62803e-10
-9.92649e-14
2.62926e-10
-1.22814e-13
2.63077e-10
-1.50622e-13
2.6326e-10
-1.83177e-13
2.63481e-10
-2.20979e-13
2.63746e-10
-2.64537e-13
2.6406e-10
-3.14368e-13
2.64431e-10
-3.70994e-13
2.64866e-10
-4.34955e-13
2.65373e-10
-5.06808e-13
2.6596e-10
-5.87153e-13
2.66636e-10
-6.76648e-13
2.67413e-10
-7.76053e-13
2.68299e-10
-8.86269e-13
2.69307e-10
-1.00839e-12
2.70451e-10
-1.14389e-12
2.71745e-10
-1.29439e-12
2.73208e-10
-1.46291e-12
2.7486e-10
-1.65127e-12
2.76727e-10
-1.86782e-12
2.78098e-10
-1.37011e-12
2.79546e-10
-1.44883e-12
2.81077e-10
-1.53062e-12
2.82696e-10
-1.61926e-12
2.84408e-10
-1.71168e-12
2.86219e-10
-1.81079e-12
2.88136e-10
-1.91709e-12
2.90168e-10
-2.03249e-12
2.92327e-10
-2.15878e-12
2.94625e-10
-2.29835e-12
2.9708e-10
-2.45414e-12
2.9971e-10
-2.62997e-12
3.02541e-10
-2.83135e-12
3.05607e-10
-3.06616e-12
3.08955e-10
-3.34803e-12
3.12653e-10
-3.69785e-12
3.16812e-10
-4.15853e-12
3.21607e-10
-4.79574e-12
3.27378e-10
-5.7703e-12
3.34715e-10
-7.33738e-12
3.44988e-10
-1.02728e-11
3.61306e-10
-1.6318e-11
3.96162e-10
-3.48558e-11
5.15433e-10
-1.19271e-10
-7.60784e-09
8.12327e-09
1.22066e-09
1.50224e-07
1.10392e-09
1.46889e-10
1.05013e-09
6.76553e-11
1.04138e-09
1.10053e-11
1.03021e-09
1.40487e-11
1.02617e-09
5.08084e-12
1.02301e-09
3.96934e-12
1.02136e-09
2.08215e-12
1.02026e-09
1.37999e-12
1.0196e-09
8.27321e-13
1.01918e-09
5.35366e-13
1.01891e-09
3.40356e-13
1.01873e-09
2.23132e-13
1.01861e-09
1.47073e-13
1.01853e-09
9.865e-14
1.01848e-09
6.6893e-14
1.01844e-09
4.59708e-14
1.01842e-09
3.19511e-14
1.0184e-09
2.24552e-14
1.01839e-09
1.59298e-14
1.01838e-09
1.13783e-14
1.01837e-09
8.13892e-15
1.01837e-09
5.76455e-15
1.01836e-09
3.94003e-15
1.01836e-09
2.42937e-15
1.01836e-09
1.03949e-15
1.01836e-09
-4.0698e-16
1.01836e-09
-2.09303e-15
1.01837e-09
-4.22477e-15
1.01837e-09
-7.04777e-15
1.01838e-09
-1.08637e-14
1.01839e-09
-1.60464e-14
1.01841e-09
-2.30583e-14
1.01844e-09
-3.24663e-14
1.01847e-09
-4.49579e-14
1.01852e-09
-6.13562e-14
1.01859e-09
-8.26327e-14
1.01868e-09
-1.09918e-13
1.01879e-09
-1.4451e-13
1.01894e-09
-1.87876e-13
1.01913e-09
-2.41653e-13
1.01938e-09
-3.0764e-13
1.01968e-09
-3.87791e-13
1.02007e-09
-4.84196e-13
1.02055e-09
-5.99065e-13
1.02113e-09
-7.34705e-13
1.02184e-09
-8.935e-13
1.0227e-09
-1.07789e-12
1.02372e-09
-1.29036e-12
1.02494e-09
-1.53342e-12
1.02638e-09
-1.80963e-12
1.02807e-09
-2.12161e-12
1.03003e-09
-2.47209e-12
1.03231e-09
-2.86398e-12
1.03493e-09
-3.30051e-12
1.03794e-09
-3.78537e-12
1.04138e-09
-4.32295e-12
1.04529e-09
-4.91862e-12
1.04973e-09
-5.57948e-12
1.05474e-09
-6.31357e-12
1.06042e-09
-7.13546e-12
1.06682e-09
-8.05415e-12
1.07406e-09
-9.11033e-12
1.07937e-09
-6.68238e-12
1.08499e-09
-7.06671e-12
1.09093e-09
-7.4654e-12
1.09721e-09
-7.89775e-12
1.10384e-09
-8.3484e-12
1.11086e-09
-8.83176e-12
1.1183e-09
-9.35014e-12
1.12618e-09
-9.91296e-12
1.13455e-09
-1.05289e-11
1.14346e-09
-1.12096e-11
1.15297e-09
-1.19696e-11
1.16317e-09
-1.28275e-11
1.17415e-09
-1.38104e-11
1.18604e-09
-1.4957e-11
1.19903e-09
-1.63342e-11
1.21337e-09
-1.80448e-11
1.22952e-09
-2.02997e-11
1.24814e-09
-2.34216e-11
1.27057e-09
-2.82016e-11
1.29913e-09
-3.58925e-11
1.33917e-09
-5.03185e-11
1.40291e-09
-8.00507e-11
1.5376e-09
-1.69548e-10
1.98584e-09
-5.67512e-10
-1.67301e-08
1.11081e-08
2.70491e-09
2.49319e-07
2.4467e-09
4.05102e-10
2.3275e-09
1.86852e-10
2.30812e-09
3.03901e-11
2.28337e-09
3.8796e-11
2.27442e-09
1.40307e-11
2.26743e-09
1.0961e-11
2.26376e-09
5.74969e-12
2.26133e-09
3.81071e-12
2.25987e-09
2.28457e-12
2.25893e-09
1.47836e-12
2.25833e-09
9.3986e-13
2.25794e-09
6.16157e-13
2.25768e-09
4.06124e-13
2.25751e-09
2.7241e-13
2.25739e-09
1.84715e-13
2.25731e-09
1.26941e-13
2.25725e-09
8.82262e-14
2.25721e-09
6.20043e-14
2.25718e-09
4.39849e-14
2.25716e-09
3.14163e-14
2.25715e-09
2.24712e-14
2.25714e-09
1.59147e-14
2.25713e-09
1.08767e-14
2.25713e-09
6.70556e-15
2.25713e-09
2.86815e-15
2.25713e-09
-1.12522e-15
2.25713e-09
-5.77975e-15
2.25714e-09
-1.16644e-14
2.25715e-09
-1.94571e-14
2.25717e-09
-2.99905e-14
2.2572e-09
-4.42967e-14
2.25724e-09
-6.36519e-14
2.2573e-09
-8.96213e-14
2.25737e-09
-1.24103e-13
2.25748e-09
-1.69368e-13
2.25763e-09
-2.28098e-13
2.25782e-09
-3.03416e-13
2.25808e-09
-3.98902e-13
2.25841e-09
-5.18607e-13
2.25883e-09
-6.6705e-13
2.25937e-09
-8.49198e-13
2.26006e-09
-1.07044e-12
2.26091e-09
-1.33655e-12
2.26196e-09
-1.65363e-12
2.26326e-09
-2.02804e-12
2.26483e-09
-2.46637e-12
2.26673e-09
-2.97535e-12
2.269e-09
-3.56183e-12
2.2717e-09
-4.23275e-12
2.27488e-09
-4.99517e-12
2.27862e-09
-5.85634e-12
2.28297e-09
-6.82376e-12
2.28801e-09
-7.9055e-12
2.29382e-09
-9.11042e-12
2.30048e-09
-1.04487e-11
2.30809e-09
-1.19326e-11
2.31675e-09
-1.35768e-11
2.32657e-09
-1.54008e-11
2.33769e-09
-1.7427e-11
2.35025e-09
-1.96955e-11
2.36442e-09
-2.22311e-11
2.38046e-09
-2.51462e-11
2.39222e-09
-1.8444e-11
2.40466e-09
-1.95054e-11
2.4178e-09
-2.06054e-11
2.4317e-09
-2.17986e-11
2.4464e-09
-2.30423e-11
2.46194e-09
-2.43762e-11
2.4784e-09
-2.58068e-11
2.49584e-09
-2.73601e-11
2.51437e-09
-2.90601e-11
2.5341e-09
-3.09391e-11
2.55517e-09
-3.30369e-11
2.57775e-09
-3.54057e-11
2.60206e-09
-3.81204e-11
2.62839e-09
-4.12885e-11
2.65715e-09
-4.50963e-11
2.68894e-09
-4.98296e-11
2.72471e-09
-5.60747e-11
2.76602e-09
-6.47295e-11
2.81581e-09
-7.79916e-11
2.87927e-09
-9.93513e-11
2.96839e-09
-1.39439e-10
3.11051e-09
-2.22167e-10
3.40839e-09
-4.67434e-10
4.36996e-09
-1.52908e-09
-2.764e-08
1.52799e-08
5.0676e-09
3.68813e-07
4.58469e-09
8.88014e-10
4.36151e-09
4.10031e-10
4.32516e-09
6.6742e-11
4.27882e-09
8.51349e-11
4.26205e-09
3.07992e-11
4.24896e-09
2.40547e-11
4.24209e-09
1.26195e-11
4.23754e-09
8.36322e-12
4.23481e-09
5.01402e-12
4.23304e-09
3.24455e-12
4.23192e-09
2.06273e-12
4.23118e-09
1.35228e-12
4.2307e-09
8.91327e-13
4.23037e-09
5.97861e-13
4.23015e-09
4.05396e-13
4.23e-09
2.78596e-13
4.22989e-09
1.93629e-13
4.22982e-09
1.36079e-13
4.22977e-09
9.65316e-14
4.22973e-09
6.89472e-14
4.2297e-09
4.93151e-14
4.22968e-09
3.49259e-14
4.22967e-09
2.38695e-14
4.22966e-09
1.4716e-14
4.22966e-09
6.29549e-15
4.22966e-09
-2.4665e-15
4.22967e-09
-1.26784e-14
4.22968e-09
-2.55885e-14
4.22971e-09
-4.2684e-14
4.22974e-09
-6.57915e-14
4.22979e-09
-9.71754e-14
4.22987e-09
-1.39635e-13
4.22998e-09
-1.96604e-13
4.23013e-09
-2.72246e-13
4.23033e-09
-3.71544e-13
4.2306e-09
-5.00381e-13
4.23096e-09
-6.65605e-13
4.23144e-09
-8.75072e-13
4.23206e-09
-1.13767e-12
4.23285e-09
-1.46331e-12
4.23387e-09
-1.86288e-12
4.23515e-09
-2.34822e-12
4.23674e-09
-2.93199e-12
4.23871e-09
-3.62755e-12
4.24114e-09
-4.44889e-12
4.24408e-09
-5.41044e-12
4.24763e-09
-6.52698e-12
4.25188e-09
-7.81352e-12
4.25694e-09
-9.2853e-12
4.2629e-09
-1.09578e-11
4.26989e-09
-1.28469e-11
4.27803e-09
-1.49691e-11
4.28747e-09
-1.7342e-11
4.29835e-09
-1.99851e-11
4.31082e-09
-2.29209e-11
4.32506e-09
-2.61758e-11
4.34127e-09
-2.97824e-11
4.35965e-09
-3.37835e-11
4.38045e-09
-3.82279e-11
4.40396e-09
-4.32037e-11
4.43049e-09
-4.87655e-11
4.46051e-09
-5.51593e-11
4.48252e-09
-4.04565e-11
4.5058e-09
-4.27855e-11
4.53039e-09
-4.5198e-11
4.55641e-09
-4.78146e-11
4.58391e-09
-5.05422e-11
4.613e-09
-5.34677e-11
4.6438e-09
-5.66052e-11
4.67645e-09
-6.00119e-11
4.71113e-09
-6.37404e-11
4.74805e-09
-6.7862e-11
4.78748e-09
-7.24643e-11
4.82974e-09
-7.76622e-11
4.87524e-09
-8.36211e-11
4.92453e-09
-9.0579e-11
4.97838e-09
-9.89476e-11
5.03791e-09
-1.0936e-10
5.10494e-09
-1.2311e-10
5.1824e-09
-1.4219e-10
5.27586e-09
-1.71445e-10
5.39514e-09
-2.18629e-10
5.56288e-09
-3.07187e-10
5.83092e-09
-4.90198e-10
6.38704e-09
-1.02356e-09
8.11935e-09
-3.26139e-09
-4.06493e-08
2.11287e-08
8.75423e-09
5.12845e-07
7.92163e-09
1.72062e-09
7.53642e-09
7.95236e-10
7.47353e-09
1.29634e-10
7.39354e-09
1.65127e-10
7.36456e-09
5.9772e-11
7.34195e-09
4.66629e-11
7.33009e-09
2.44847e-11
7.32223e-09
1.62247e-11
7.31751e-09
9.72782e-12
7.31446e-09
6.29464e-12
7.31252e-09
4.0019e-12
7.31125e-09
2.62355e-12
7.31042e-09
1.72926e-12
7.30985e-09
1.15991e-12
7.30947e-09
7.86512e-13
7.30921e-09
5.40507e-13
7.30903e-09
3.75662e-13
7.3089e-09
2.64009e-13
7.30881e-09
1.87282e-13
7.30875e-09
1.33765e-13
7.3087e-09
9.56777e-14
7.30867e-09
6.77619e-14
7.30864e-09
4.63127e-14
7.30863e-09
2.85562e-14
7.30862e-09
1.22231e-14
7.30863e-09
-4.77057e-15
7.30864e-09
-2.45745e-14
7.30866e-09
-4.96094e-14
7.3087e-09
-8.27589e-14
7.30876e-09
-1.27565e-13
7.30886e-09
-1.88419e-13
7.30899e-09
-2.70749e-13
7.30917e-09
-3.81211e-13
7.30943e-09
-5.2788e-13
7.30978e-09
-7.20417e-13
7.31025e-09
-9.70229e-13
7.31087e-09
-1.2906e-12
7.31169e-09
-1.69675e-12
7.31276e-09
-2.20592e-12
7.31414e-09
-2.83732e-12
7.31588e-09
-3.61209e-12
7.31809e-09
-4.55315e-12
7.32084e-09
-5.68505e-12
7.32425e-09
-7.03373e-12
7.32843e-09
-8.62628e-12
7.33351e-09
-1.04907e-11
7.33963e-09
-1.26556e-11
7.34697e-09
-1.51502e-11
7.35569e-09
-1.80039e-11
7.36598e-09
-2.12467e-11
7.37804e-09
-2.49096e-11
7.3921e-09
-2.90243e-11
7.40838e-09
-3.36252e-11
7.42715e-09
-3.87499e-11
7.44867e-09
-4.4442e-11
7.47324e-09
-5.07529e-11
7.50121e-09
-5.77454e-11
7.53293e-09
-6.55028e-11
7.56882e-09
-7.41195e-11
7.60938e-09
-8.37661e-11
7.65516e-09
-9.45489e-11
7.70695e-09
-1.06944e-10
7.74493e-09
-7.84356e-11
7.78509e-09
-8.29519e-11
7.82752e-09
-8.76287e-11
7.87241e-09
-9.27001e-11
7.91985e-09
-9.79873e-11
7.97004e-09
-1.03658e-10
8.02318e-09
-1.0974e-10
8.07951e-09
-1.16343e-10
8.13934e-09
-1.23571e-10
8.20304e-09
-1.31562e-10
8.27106e-09
-1.40486e-10
8.34397e-09
-1.50568e-10
8.42248e-09
-1.62131e-10
8.50754e-09
-1.7564e-10
8.60049e-09
-1.91901e-10
8.70329e-09
-2.12155e-10
8.81911e-09
-2.38929e-10
8.95306e-09
-2.76138e-10
9.11483e-09
-3.33221e-10
9.32164e-09
-4.2544e-10
9.6129e-09
-5.98443e-10
1.0079e-08
-9.56335e-10
1.10343e-08
-1.97885e-09
1.38888e-08
-6.1159e-09
-5.61059e-08
2.93454e-08
1.44236e-08
6.86368e-07
1.30549e-08
3.0893e-09
1.24209e-08
1.4292e-09
1.23171e-08
2.33463e-10
1.21854e-08
2.96802e-10
1.21377e-08
1.07521e-10
1.21004e-08
8.38897e-11
1.20809e-08
4.40298e-11
1.2068e-08
2.91716e-11
1.20602e-08
1.74918e-11
1.20552e-08
1.1318e-11
1.2052e-08
7.19577e-12
1.20499e-08
4.71733e-12
1.20485e-08
3.10938e-12
1.20476e-08
2.08563e-12
1.20469e-08
1.41423e-12
1.20465e-08
9.71892e-13
1.20462e-08
6.75486e-13
1.2046e-08
4.74724e-13
1.20459e-08
3.36761e-13
1.20458e-08
2.40533e-13
1.20457e-08
1.72048e-13
1.20456e-08
1.21855e-13
1.20456e-08
8.32901e-14
1.20456e-08
5.13671e-14
1.20456e-08
2.20065e-14
1.20456e-08
-8.5378e-15
1.20456e-08
-4.41291e-14
1.20456e-08
-8.91178e-14
1.20457e-08
-1.48686e-13
1.20458e-08
-2.29198e-13
1.20459e-08
-3.38544e-13
1.20461e-08
-4.86477e-13
1.20465e-08
-6.84959e-13
1.20469e-08
-9.48497e-13
1.20474e-08
-1.29445e-12
1.20482e-08
-1.74332e-12
1.20492e-08
-2.31896e-12
1.20506e-08
-3.04874e-12
1.20524e-08
-3.96362e-12
1.20546e-08
-5.09813e-12
1.20575e-08
-6.49024e-12
1.20611e-08
-8.18116e-12
1.20657e-08
-1.0215e-11
1.20713e-08
-1.26383e-11
1.20781e-08
-1.54998e-11
1.20865e-08
-1.88497e-11
1.20966e-08
-2.27397e-11
1.21086e-08
-2.72218e-11
1.2123e-08
-3.23493e-11
1.21399e-08
-3.8176e-11
1.21598e-08
-4.47573e-11
1.21829e-08
-5.21504e-11
1.22097e-08
-6.04171e-11
1.22406e-08
-6.96248e-11
1.2276e-08
-7.98517e-11
1.23164e-08
-9.11903e-11
1.23624e-08
-1.03753e-10
1.24146e-08
-1.1769e-10
1.24737e-08
-1.33171e-10
1.25404e-08
-1.50501e-10
1.26157e-08
-1.69873e-10
1.27009e-08
-1.92138e-10
1.27634e-08
-1.40916e-10
1.28295e-08
-1.49031e-10
1.28993e-08
-1.57433e-10
1.29731e-08
-1.6654e-10
1.30512e-08
-1.76037e-10
1.31337e-08
-1.86221e-10
1.32211e-08
-1.97145e-10
1.33138e-08
-2.09007e-10
1.34122e-08
-2.21991e-10
1.3517e-08
-2.36346e-10
1.36289e-08
-2.52382e-10
1.37488e-08
-2.70504e-10
1.3878e-08
-2.91298e-10
1.4018e-08
-3.15609e-10
1.4171e-08
-3.44899e-10
1.43402e-08
-3.81429e-10
1.45311e-08
-4.29773e-10
1.4752e-08
-4.97075e-10
1.50192e-08
-6.00377e-10
1.53613e-08
-7.6757e-10
1.58438e-08
-1.0809e-09
1.66166e-08
-1.72919e-09
1.81771e-08
-3.53928e-09
2.26199e-08
-1.05588e-08
-7.43902e-08
4.09043e-08
2.3047e-08
8.95288e-07
2.0866e-08
5.27032e-09
1.98544e-08
2.44076e-09
1.96881e-08
3.99779e-10
1.94779e-08
5.06959e-10
1.94016e-08
1.83842e-10
1.93422e-08
1.43328e-10
1.9311e-08
7.52522e-11
1.92903e-08
4.98476e-11
1.92779e-08
2.98925e-11
1.92699e-08
1.93409e-11
1.92648e-08
1.2297e-11
1.92614e-08
8.06142e-12
1.92592e-08
5.31367e-12
1.92577e-08
3.56417e-12
1.92567e-08
2.41683e-12
1.9256e-08
1.66091e-12
1.92556e-08
1.15438e-12
1.92552e-08
8.11294e-13
1.9255e-08
5.75528e-13
1.92548e-08
4.11083e-13
1.92547e-08
2.94049e-13
1.92546e-08
2.08275e-13
1.92545e-08
1.42377e-13
1.92545e-08
8.78333e-14
1.92545e-08
3.76744e-14
1.92545e-08
-1.44986e-14
1.92545e-08
-7.52841e-14
1.92546e-08
-1.52111e-13
1.92547e-08
-2.53829e-13
1.92549e-08
-3.91306e-13
1.92551e-08
-5.78014e-13
1.92554e-08
-8.30605e-13
1.92559e-08
-1.16951e-12
1.92566e-08
-1.61948e-12
1.92575e-08
-2.21019e-12
1.92587e-08
-2.9766e-12
1.92604e-08
-3.95948e-12
1.92625e-08
-5.20553e-12
1.92653e-08
-6.76764e-12
1.9269e-08
-8.70475e-12
1.92735e-08
-1.10817e-11
1.92793e-08
-1.39688e-11
1.92866e-08
-1.74414e-11
1.92955e-08
-2.15791e-11
1.93065e-08
-2.64649e-11
1.93198e-08
-3.21847e-11
1.93359e-08
-3.88264e-11
1.93551e-08
-4.64793e-11
1.9378e-08
-5.5234e-11
1.9405e-08
-6.51825e-11
1.94367e-08
-7.64192e-11
1.94736e-08
-8.9042e-11
1.95163e-08
-1.03156e-10
1.95656e-08
-1.18877e-10
1.96221e-08
-1.36337e-10
1.96866e-08
-1.55696e-10
1.976e-08
-1.77144e-10
1.98432e-08
-2.00937e-10
1.99374e-08
-2.27365e-10
2.00439e-08
-2.5695e-10
2.0164e-08
-2.90019e-10
2.02999e-08
-3.28024e-10
2.03995e-08
-2.40569e-10
2.05049e-08
-2.54424e-10
2.06163e-08
-2.68766e-10
2.0734e-08
-2.84305e-10
2.08585e-08
-3.00514e-10
2.09902e-08
-3.17894e-10
2.11296e-08
-3.36538e-10
2.12774e-08
-3.56781e-10
2.14343e-08
-3.78943e-10
2.16014e-08
-4.03449e-10
2.17799e-08
-4.3083e-10
2.19711e-08
-4.61785e-10
2.21772e-08
-4.97322e-10
2.24005e-08
-5.38908e-10
2.26446e-08
-5.89061e-10
2.29149e-08
-6.51706e-10
2.32198e-08
-7.34719e-10
2.35733e-08
-8.50511e-10
2.40012e-08
-1.02832e-09
2.45503e-08
-1.31664e-09
2.53254e-08
-1.85601e-09
2.65667e-08
-2.9705e-09
2.90285e-08
-6.00106e-09
3.56576e-08
-1.71879e-08
-9.59061e-08
5.71735e-08
3.60531e-08
1.14664e-06
3.26525e-08
8.67085e-09
3.10729e-08
4.02041e-09
3.08119e-08
6.60741e-10
3.04836e-08
8.35245e-10
3.03642e-08
3.03281e-10
3.02713e-08
2.36222e-10
3.02225e-08
1.24078e-10
3.01902e-08
8.21689e-11
3.01708e-08
4.92814e-11
3.01582e-08
3.18836e-11
3.01502e-08
2.02725e-11
3.0145e-08
1.32897e-11
3.01416e-08
8.76003e-12
3.01393e-08
5.87585e-12
3.01377e-08
3.98441e-12
3.01366e-08
2.73822e-12
3.01359e-08
1.90317e-12
3.01353e-08
1.33756e-12
3.0135e-08
9.48878e-13
3.01347e-08
6.77776e-13
3.01345e-08
4.84838e-13
3.01344e-08
3.43439e-13
3.01343e-08
2.34812e-13
3.01342e-08
1.44912e-13
3.01342e-08
6.22526e-14
3.01342e-08
-2.37101e-14
3.01343e-08
-1.23847e-13
3.01344e-08
-2.50395e-13
3.01345e-08
-4.1793e-13
3.01348e-08
-6.44351e-13
3.01352e-08
-9.51846e-13
3.01357e-08
-1.36784e-12
3.01364e-08
-1.92598e-12
3.01375e-08
-2.66704e-12
3.01389e-08
-3.63985e-12
3.01409e-08
-4.90205e-12
3.01434e-08
-6.52071e-12
3.01468e-08
-8.57281e-12
3.01512e-08
-1.11454e-11
3.01568e-08
-1.43356e-11
3.0164e-08
-1.82501e-11
3.0173e-08
-2.30048e-11
3.01843e-08
-2.87237e-11
3.01982e-08
-3.55378e-11
3.02154e-08
-4.3584e-11
3.02362e-08
-5.30037e-11
3.02613e-08
-6.39415e-11
3.02914e-08
-7.65447e-11
3.03271e-08
-9.09622e-11
3.03692e-08
-1.07346e-10
3.04187e-08
-1.2585e-10
3.04763e-08
-1.46637e-10
3.0543e-08
-1.6988e-10
3.06199e-08
-1.95768e-10
3.07081e-08
-2.2452e-10
3.08088e-08
-2.56397e-10
3.09233e-08
-2.91715e-10
3.10533e-08
-3.30893e-10
3.12003e-08
-3.74408e-10
3.13665e-08
-4.23117e-10
3.15541e-08
-4.77566e-10
3.17662e-08
-5.40131e-10
3.19217e-08
-3.96112e-10
3.20862e-08
-4.18926e-10
3.226e-08
-4.42538e-10
3.24438e-08
-4.68108e-10
3.26381e-08
-4.94788e-10
3.28436e-08
-5.23392e-10
3.30611e-08
-5.54077e-10
3.32917e-08
-5.87398e-10
3.35367e-08
-6.23877e-10
3.37974e-08
-6.64224e-10
3.40759e-08
-7.09315e-10
3.43744e-08
-7.60315e-10
3.4696e-08
-8.18903e-10
3.50447e-08
-8.87531e-10
3.5426e-08
-9.70399e-10
3.58484e-08
-1.07409e-09
3.63253e-08
-1.21169e-09
3.68789e-08
-1.40403e-09
3.755e-08
-1.69948e-09
3.84128e-08
-2.17942e-09
3.96315e-08
-3.07471e-09
4.15792e-08
-4.91815e-09
4.53598e-08
-9.78171e-09
5.49114e-08
-2.67395e-08
-1.21063e-07
8.00682e-08
5.5538e-08
1.44876e-06
5.03208e-08
1.3888e-08
4.78927e-08
6.44854e-09
4.74893e-08
1.06421e-09
4.69844e-08
1.34005e-09
4.68004e-08
4.87355e-10
4.66574e-08
3.79151e-10
4.65823e-08
1.99257e-10
4.65325e-08
1.31914e-10
4.65027e-08
7.91294e-11
4.64834e-08
5.119e-11
4.64711e-08
3.25498e-11
4.6463e-08
2.13378e-11
4.64577e-08
1.40653e-11
4.64542e-08
9.43443e-12
4.64518e-08
6.39757e-12
4.64501e-08
4.39668e-12
4.6449e-08
3.05591e-12
4.64481e-08
2.14776e-12
4.64476e-08
1.52369e-12
4.64472e-08
1.0884e-12
4.64469e-08
7.78621e-13
4.64467e-08
5.516e-13
4.64465e-08
3.77208e-13
4.64464e-08
2.329e-13
4.64464e-08
1.00241e-13
4.64464e-08
-3.76889e-14
4.64465e-08
-1.9833e-13
4.64466e-08
-4.01311e-13
4.64469e-08
-6.7001e-13
4.64473e-08
-1.03313e-12
4.64479e-08
-1.52626e-12
4.64487e-08
-2.19338e-12
4.64498e-08
-3.08844e-12
4.64515e-08
-4.27684e-12
4.64536e-08
-5.83687e-12
4.64566e-08
-7.86098e-12
4.64605e-08
-1.04567e-11
4.64657e-08
-1.37475e-11
4.64724e-08
-1.7873e-11
4.64811e-08
-2.29888e-11
4.64921e-08
-2.92662e-11
4.6506e-08
-3.68909e-11
4.65233e-08
-4.60618e-11
4.65448e-08
-5.6989e-11
4.65711e-08
-6.9892e-11
4.66031e-08
-8.49974e-11
4.66417e-08
-1.02537e-10
4.66879e-08
-1.22747e-10
4.67428e-08
-1.45867e-10
4.68076e-08
-1.72139e-10
4.68836e-08
-2.01812e-10
4.69721e-08
-2.35144e-10
4.70746e-08
-2.72414e-10
4.71928e-08
-3.13925e-10
4.73283e-08
-3.60028e-10
4.7483e-08
-4.11139e-10
4.76591e-08
-4.67766e-10
4.78587e-08
-5.30579e-10
4.80847e-08
-6.00346e-10
4.834e-08
-6.78432e-10
4.86281e-08
-7.65723e-10
4.8954e-08
-8.66003e-10
4.9193e-08
-6.3507e-10
4.94457e-08
-6.71646e-10
4.97127e-08
-7.09498e-10
4.9995e-08
-7.5046e-10
5.02934e-08
-7.93217e-10
5.06091e-08
-8.39049e-10
5.09432e-08
-8.8822e-10
5.12975e-08
-9.41614e-10
5.16737e-08
-1.00008e-09
5.20742e-08
-1.06475e-09
5.25019e-08
-1.13705e-09
5.29605e-08
-1.21887e-09
5.34545e-08
-1.31293e-09
5.39902e-08
-1.42324e-09
5.45765e-08
-1.55663e-09
5.52262e-08
-1.72386e-09
5.59607e-08
-1.94613e-09
5.68142e-08
-2.25756e-09
5.78507e-08
-2.73593e-09
5.91854e-08
-3.51416e-09
6.10704e-08
-4.95968e-09
6.4069e-08
-7.91675e-09
6.97425e-08
-1.54552e-08
8.30772e-08
-4.00741e-08
-1.50246e-07
1.1226e-07
8.45706e-08
1.81149e-06
7.66657e-08
2.17929e-08
7.29781e-08
1.01361e-08
7.2361e-08
1.6813e-09
7.1594e-08
2.10704e-09
7.13136e-08
7.67794e-10
7.10963e-08
5.96471e-10
7.09819e-08
3.1367e-10
7.09062e-08
2.07579e-10
7.08608e-08
1.24542e-10
7.08314e-08
8.05597e-11
7.08128e-08
5.12282e-11
7.08005e-08
3.35816e-11
7.07924e-08
2.21367e-11
7.0787e-08
1.48484e-11
7.07834e-08
1.0069e-11
7.07808e-08
6.91998e-12
7.07791e-08
4.80984e-12
7.07778e-08
3.38055e-12
7.0777e-08
2.39835e-12
7.07764e-08
1.71328e-12
7.07759e-08
1.22574e-12
7.07756e-08
8.68463e-13
7.07754e-08
5.94039e-13
7.07752e-08
3.6699e-13
7.07752e-08
1.58318e-13
7.07752e-08
-5.85879e-14
7.07753e-08
-3.1115e-13
7.07755e-08
-6.30225e-13
7.07759e-08
-1.05256e-12
7.07765e-08
-1.62327e-12
7.07774e-08
-2.39827e-12
7.07786e-08
-3.4467e-12
7.07804e-08
-4.85333e-12
7.07829e-08
-6.72094e-12
7.07862e-08
-9.17259e-12
7.07907e-08
-1.23535e-11
7.07967e-08
-1.64328e-11
7.08045e-08
-2.16044e-11
7.08147e-08
-2.80876e-11
7.08279e-08
-3.61272e-11
7.08446e-08
-4.59922e-11
7.08657e-08
-5.79746e-11
7.0892e-08
-7.23867e-11
7.09246e-08
-8.95588e-11
7.09645e-08
-1.09836e-10
7.10131e-08
-1.33574e-10
7.10717e-08
-1.61137e-10
7.11419e-08
-1.92897e-10
7.12252e-08
-2.29228e-10
7.13236e-08
-2.70513e-10
7.14389e-08
-3.17142e-10
7.15733e-08
-3.69521e-10
7.1729e-08
-4.28085e-10
7.19084e-08
-4.93313e-10
7.21141e-08
-5.65754e-10
7.2349e-08
-6.46063e-10
7.26163e-08
-7.35034e-10
7.29194e-08
-8.33722e-10
7.32624e-08
-9.43329e-10
7.365e-08
-1.066e-09
7.40874e-08
-1.20313e-09
7.4582e-08
-1.36062e-09
7.49447e-08
-9.97745e-10
7.53282e-08
-1.05521e-09
7.57334e-08
-1.11466e-09
7.61619e-08
-1.17895e-09
7.66148e-08
-1.24609e-09
7.70938e-08
-1.31804e-09
7.76008e-08
-1.39524e-09
7.81382e-08
-1.47907e-09
7.8709e-08
-1.57087e-09
7.93167e-08
-1.67244e-09
7.99657e-08
-1.78604e-09
8.06615e-08
-1.91466e-09
8.14112e-08
-2.06267e-09
8.22245e-08
-2.23647e-09
8.31148e-08
-2.44696e-09
8.41024e-08
-2.71145e-09
8.52198e-08
-3.06357e-09
8.65204e-08
-3.55813e-09
8.81019e-08
-4.31746e-09
9.01415e-08
-5.55373e-09
9.30176e-08
-7.83578e-09
9.75565e-08
-1.24556e-08
1.05887e-07
-2.37853e-08
1.23943e-07
-5.81306e-08
-1.83768e-07
1.57465e-07
1.27634e-07
2.24639e-06
1.15777e-07
3.365e-08
1.1023e-07
1.56829e-08
1.09294e-07
2.61748e-09
1.08139e-07
3.26136e-09
1.07716e-07
1.19126e-09
1.07388e-07
9.23833e-10
1.07216e-07
4.86207e-10
1.07102e-07
3.21608e-10
1.07033e-07
1.93003e-10
1.06989e-07
1.24828e-10
1.06961e-07
7.93848e-11
1.06943e-07
5.20378e-11
1.0693e-07
3.43039e-11
1.06922e-07
2.30099e-11
1.06917e-07
1.56039e-11
1.06913e-07
1.0724e-11
1.0691e-07
7.45408e-12
1.06908e-07
5.2392e-12
1.06907e-07
3.71715e-12
1.06906e-07
2.65554e-12
1.06905e-07
1.90005e-12
1.06905e-07
1.34644e-12
1.06905e-07
9.21252e-13
1.06904e-07
5.69537e-13
1.06904e-07
2.46378e-13
1.06904e-07
-8.94278e-14
1.06905e-07
-4.80325e-13
1.06905e-07
-9.74066e-13
1.06906e-07
-1.6275e-12
1.06906e-07
-2.51044e-12
1.06908e-07
-3.70939e-12
1.0691e-07
-5.33129e-12
1.06912e-07
-7.50728e-12
1.06916e-07
-1.03964e-11
1.06921e-07
-1.41889e-11
1.06928e-07
-1.91096e-11
1.06937e-07
-2.54199e-11
1.06949e-07
-3.34199e-11
1.06964e-07
-4.34489e-11
1.06984e-07
-5.58854e-11
1.07009e-07
-7.11457e-11
1.0704e-07
-8.96813e-11
1.0708e-07
-1.11975e-10
1.07129e-07
-1.38539e-10
1.07189e-07
-1.69905e-10
1.07262e-07
-2.06625e-10
1.0735e-07
-2.49262e-10
1.07456e-07
-2.9839e-10
1.07581e-07
-3.54589e-10
1.07729e-07
-4.18449e-10
1.07903e-07
-4.90574e-10
1.08105e-07
-5.71592e-10
1.08339e-07
-6.62176e-10
1.08608e-07
-7.63063e-10
1.08918e-07
-8.75104e-10
1.09271e-07
-9.99308e-10
1.09673e-07
-1.1369e-09
1.10129e-07
-1.28952e-09
1.10644e-07
-1.45901e-09
1.11227e-07
-1.64867e-09
1.11885e-07
-1.86071e-09
1.12628e-07
-2.10416e-09
1.13173e-07
-1.54289e-09
1.1375e-07
-1.63173e-09
1.14359e-07
-1.72366e-09
1.15003e-07
-1.82294e-09
1.15683e-07
-1.92669e-09
1.16403e-07
-2.03784e-09
1.17165e-07
-2.15711e-09
1.17973e-07
-2.28663e-09
1.1883e-07
-2.42848e-09
1.19743e-07
-2.58546e-09
1.20718e-07
-2.7611e-09
1.21764e-07
-2.96012e-09
1.22891e-07
-3.18936e-09
1.24113e-07
-3.45895e-09
1.25452e-07
-3.78605e-09
1.26939e-07
-4.19804e-09
1.28623e-07
-4.74744e-09
1.30585e-07
-5.52088e-09
1.32975e-07
-6.70708e-09
1.36059e-07
-8.63755e-09
1.40393e-07
-1.21696e-08
1.47149e-07
-1.92116e-08
1.59107e-07
-3.57438e-08
1.82814e-07
-8.18371e-08
-2.21799e-07
2.20845e-07
1.91261e-07
2.76691e-06
1.73627e-07
5.1284e-08
1.65349e-07
2.39609e-08
1.63937e-07
4.0291e-09
1.62214e-07
4.98517e-09
1.61579e-07
1.82621e-09
1.61089e-07
1.41323e-09
1.60831e-07
7.44491e-10
1.6066e-07
4.92172e-10
1.60558e-07
2.95448e-10
1.60492e-07
1.91057e-10
1.6045e-07
1.21515e-10
1.60422e-07
7.96522e-11
1.60404e-07
5.25097e-11
1.60392e-07
3.5222e-11
1.60383e-07
2.3886e-11
1.60378e-07
1.64164e-11
1.60374e-07
1.14112e-11
1.60371e-07
8.02081e-12
1.60369e-07
5.69098e-12
1.60368e-07
4.06595e-12
1.60367e-07
2.90954e-12
1.60366e-07
2.06219e-12
1.60365e-07
1.41149e-12
1.60365e-07
8.73348e-13
1.60365e-07
3.79059e-13
1.60365e-07
-1.34383e-13
1.60365e-07
-7.31863e-13
1.60366e-07
-1.48635e-12
1.60367e-07
-2.48472e-12
1.60368e-07
-3.83361e-12
1.6037e-07
-5.66518e-12
1.60373e-07
-8.14279e-12
1.60377e-07
-1.14668e-11
1.60382e-07
-1.588e-11
1.6039e-07
-2.16732e-11
1.604e-07
-2.91897e-11
1.60413e-07
-3.88289e-11
1.60431e-07
-5.1049e-11
1.60454e-07
-6.63686e-11
1.60483e-07
-8.53656e-11
1.60521e-07
-1.08676e-10
1.60568e-07
-1.36989e-10
1.60627e-07
-1.71043e-10
1.607e-07
-2.11619e-10
1.6079e-07
-2.59531e-10
1.60899e-07
-3.15619e-10
1.6103e-07
-3.80746e-10
1.61188e-07
-4.55787e-10
1.61375e-07
-5.41627e-10
1.61595e-07
-6.39167e-10
1.61854e-07
-7.4933e-10
1.62156e-07
-8.73073e-10
1.62505e-07
-1.01142e-09
1.62907e-07
-1.1655e-09
1.63369e-07
-1.33661e-09
1.63896e-07
-1.52628e-09
1.64495e-07
-1.7364e-09
1.65175e-07
-1.96943e-09
1.65944e-07
-2.22821e-09
1.66813e-07
-2.51776e-09
1.67794e-07
-2.84146e-09
1.68903e-07
-3.21298e-09
1.69716e-07
-2.35579e-09
1.70576e-07
-2.4914e-09
1.71484e-07
-2.63171e-09
1.72444e-07
-2.78306e-09
1.73458e-07
-2.94132e-09
1.74531e-07
-3.11081e-09
1.75667e-07
-3.2927e-09
1.76871e-07
-3.49021e-09
1.78149e-07
-3.70656e-09
1.79509e-07
-3.94605e-09
1.80962e-07
-4.21414e-09
1.8252e-07
-4.51813e-09
1.842e-07
-4.86868e-09
1.86022e-07
-5.28165e-09
1.8802e-07
-5.78366e-09
1.90239e-07
-6.41755e-09
1.92756e-07
-7.26422e-09
1.95694e-07
-8.45841e-09
1.99273e-07
-1.0286e-08
2.03889e-07
-1.32537e-08
2.10336e-07
-1.86172e-08
2.20213e-07
-2.90879e-08
2.36963e-07
-5.24942e-08
2.67103e-07
-1.11977e-07
-2.64262e-07
3.09565e-07
2.84952e-07
3.38859e-06
2.58924e-07
7.73115e-08
2.46653e-07
3.62317e-08