/*--------------------------------*- C++ -*----------------------------------*\
| =========                 |                                                 |
| \\      /  F ield         | OpenFOAM: The Open Source CFD Toolbox           |
|  \\    /   O peration     | Version:  2506                                  |
|   \\  /    A nd           | Website:  www.openfoam.com                      |
|    \\/     M anipulation  |                                                 |
\*---------------------------------------------------------------------------*/
FoamFile
{
    version     2.0;
    format      ascii;
    arch        "LSB;label=32;scalar=64";
    class       surfaceScalarField;
    location    "1000";
    object      phi;
}
// * * * * * * * * * * * * * * * * * * * * * * * * * * * * * * * * * * * * * //

dimensions      [0 3 -1 0 0 0 0];

oriented        oriented;

internalField   nonuniform List<scalar> 
40747
(
9.41066e-06
5.46984e-06
5.01562e-06
4.39503e-06
1.14076e-05
1.20636e-05
1.10561e-05
5.36715e-06
1.3837e-05
2.00033e-05
1.83253e-05
6.56779e-06
1.67964e-05
2.95508e-05
2.70651e-05
8.05656e-06
2.04076e-05
4.10121e-05
3.75618e-05
9.911e-06
2.48223e-05
5.47425e-05
5.01515e-05
1.22326e-05
3.0231e-05
7.11498e-05
6.52274e-05
1.51552e-05
3.68736e-05
9.06958e-05
8.32444e-05
1.88566e-05
4.50544e-05
0.000113894
0.000104724
2.35747e-05
5.51606e-05
0.0001413
0.000130255
2.96294e-05
6.76874e-05
0.000173496
0.00016049
3.74524e-05
8.32707e-05
0.000211057
0.000196132
4.76288e-05
0.000102729
0.000254502
0.000237909
6.09519e-05
0.000127115
0.000304217
0.000286527
7.84966e-05
0.000157786
0.000360347
0.0003426
0.000101714
0.00019648
0.000422647
0.00040653
0.00013255
0.000245403
0.000490298
0.000478344
0.000173589
0.000307326
0.000561682
0.00055746
0.00022821
0.000385656
0.000634161
0.000642379
0.000300738
0.000484471
0.00070391
0.000730308
0.000396542
0.000608466
0.000765897
0.000816769
0.000522005
0.000762786
0.000814178
0.000895291
0.000684264
0.000952731
0.000842616
0.000957416
0.000890608
0.00118348
0.000846084
0.000993342
0.00114755
0.00146017
0.000821798
0.000993547
0.00145996
0.0017889
0.000769928
0.000951308
0.00183114
0.00217901
0.00069225
0.000865032
0.00226529
0.00264565
0.000588636
0.000738134
0.00277255
0.00320994
0.000453866
0.000574947
0.00337313
0.00389536
0.000278631
0.000375667
0.00409464
0.0037412
0.000101934
0.000186292
0.00393058
0.0037451
-7.86575e-05
-2.54069e-06
0.00393393
0.00374544
-0.000259594
-0.000191313
0.00393422
0.00374239
-0.000437476
-0.000380366
0.00393144
0.0037797
-0.000609906
-0.000572276
0.00397161
0.00313532
-0.000744361
-0.000728979
0.00329203
0.00259958
-0.000847528
-0.000850261
0.00272086
0.00215203
-0.00092281
-0.000932849
0.00223462
0.00177486
-0.000970033
-0.000974337
0.00181635
0.00145522
-0.00098804
-0.000976394
0.00145728
0.00118495
-0.000977373
-0.000944963
0.00115352
0.000958496
-0.000941245
-0.000888464
0.000901998
0.000771134
-0.000884957
-0.000815706
0.000698376
0.00061807
-0.000814698
-0.000734462
0.000536827
0.000494385
-0.000736465
-0.000650835
0.000410759
0.000395271
-0.000655378
-0.000569178
0.000313614
0.000316293
-0.000575391
-0.000492314
0.000239429
0.000253558
-0.000499286
-0.000421861
0.000183106
0.000203779
-0.000428819
-0.000358558
0.000140475
0.000164256
-0.000364932
-0.000302536
0.000108234
0.000132817
-0.000307957
-0.00025354
8.38214e-05
0.00010774
-0.00025781
-0.000211085
6.5285e-05
8.76693e-05
-0.000214134
-0.000174569
5.1153e-05
7.15478e-05
-0.000176416
-0.000143346
4.03243e-05
5.85496e-05
-0.000144068
-0.000116774
3.19784e-05
4.80307e-05
-0.000116482
-9.42492e-05
2.55057e-05
3.94883e-05
-9.30647e-05
-7.5214e-05
2.0453e-05
3.2528e-05
-7.32619e-05
-5.91689e-05
1.6483e-05
2.684e-05
-5.65681e-05
-4.56727e-05
1.33438e-05
2.2179e-05
-4.25315e-05
-3.434e-05
1.08462e-05
1.83505e-05
-3.07544e-05
-2.48374e-05
8.84783e-06
1.51991e-05
-2.08906e-05
-1.68786e-05
7.24032e-06
1.26004e-05
-1.26413e-05
-1.02192e-05
5.94108e-06
1.0454e-05
-5.75044e-06
-4.65163e-06
4.88641e-06
8.67863e-06
4.027e-06
2.41269e-08
4.3709e-06
1.90264e-08
5.10047e-09
1.6844e-08
2.1824e-09
1.59881e-08
8.55931e-10
1.53796e-08
6.08504e-10
1.49007e-08
4.78833e-10
1.4529e-08
3.71734e-10
1.42319e-08
2.9713e-10
1.39854e-08
2.4643e-10
1.3778e-08
2.07449e-10
1.36012e-08
1.76787e-10
1.34487e-08
1.52511e-10
1.33158e-08
1.32867e-10
1.31991e-08
1.16683e-10
1.30959e-08
1.03188e-10
1.30041e-08
9.18117e-11
1.2922e-08
8.21237e-11
1.28482e-08
7.38029e-11
1.27816e-08
6.66016e-11
1.27213e-08
6.03268e-11
1.26664e-08
5.48248e-11
1.26165e-08
4.99726e-11
1.25708e-08
4.56697e-11
1.2529e-08
4.18333e-11
1.24906e-08
3.83941e-11
1.24553e-08
3.52933e-11
1.24228e-08
3.24801e-11
1.23929e-08
2.99101e-11
1.23654e-08
2.75437e-11
1.234e-08
2.53449e-11
1.23167e-08
2.32806e-11
1.22954e-08
2.13199e-11
1.2276e-08
1.94333e-11
1.22584e-08
1.75925e-11
1.22426e-08
1.57704e-11
1.22287e-08
1.39402e-11
1.22166e-08
1.20762e-11
1.22064e-08
1.01529e-11
1.21983e-08
8.14598e-12
1.21923e-08
6.0317e-12
1.21885e-08
3.78752e-12
1.21871e-08
1.39202e-12
1.21883e-08
-1.17469e-12
1.21922e-08
-3.93039e-12
1.21991e-08
-6.89064e-12
1.22092e-08
-1.00708e-11
1.22226e-08
-1.34843e-11
1.22398e-08
-1.71421e-11
1.22608e-08
-2.10522e-11
1.2286e-08
-2.52226e-11
1.23157e-08
-2.96576e-11
1.23501e-08
-3.43647e-11
1.23894e-08
-3.93451e-11
1.2434e-08
-4.46112e-11
1.24842e-08
-5.01615e-11
1.25402e-08
-5.60233e-11
1.26024e-08
-6.21894e-11
1.26711e-08
-6.87231e-11
1.27467e-08
-7.56003e-11
1.28297e-08
-8.29611e-11
1.29205e-08
-9.0767e-11
1.30197e-08
-9.92215e-11
1.31284e-08
-1.08718e-10
1.32058e-08
-7.74137e-11
1.32856e-08
-7.98254e-11
1.3368e-08
-8.23625e-11
1.34532e-08
-8.51547e-11
1.35411e-08
-8.79475e-11
1.3632e-08
-9.09005e-11
1.3726e-08
-9.40229e-11
1.38234e-08
-9.73958e-11
1.39245e-08
-1.01092e-10
1.40297e-08
-1.05206e-10
1.41396e-08
-1.09871e-10
1.42548e-08
-1.1523e-10
1.43764e-08
-1.21545e-10
1.45054e-08
-1.28998e-10
1.46437e-08
-1.3828e-10
1.4793e-08
-1.49329e-10
1.49576e-08
-1.64666e-10
1.51395e-08
-1.81806e-10
1.5352e-08
-2.12597e-10
1.55914e-08
-2.39384e-10
1.59197e-08
-3.28306e-10
1.63151e-08
-3.95331e-10
1.73167e-08
-1.00165e-09
2.01452e-08
-2.82846e-09
-2.35431e-07
2.55576e-07
9.35568e-08
9.6445e-06
7.38372e-08
2.48201e-08
6.53723e-08
1.06473e-08
6.20495e-08
4.17875e-09
5.96886e-08
2.9694e-09
5.78309e-08
2.3365e-09
5.63886e-08
1.81402e-09
5.52358e-08
1.44994e-09
5.42797e-08
1.20251e-09
5.34749e-08
1.01229e-09
5.2789e-08
8.62665e-10
5.21973e-08
7.44205e-10
5.16818e-08
6.48342e-10
5.12291e-08
5.69371e-10
5.08288e-08
5.03519e-10
5.04726e-08
4.48004e-10
5.0154e-08
4.00729e-10
4.98677e-08
3.60126e-10
4.96093e-08
3.24987e-10
4.93753e-08
2.94367e-10
4.91626e-08
2.67519e-10
4.89687e-08
2.43842e-10
4.87915e-08
2.22845e-10
4.86292e-08
2.04125e-10
4.84803e-08
1.87343e-10
4.83434e-08
1.72212e-10
4.82174e-08
1.58484e-10
4.81013e-08
1.45944e-10
4.79945e-08
1.34398e-10
4.78962e-08
1.2367e-10
4.78059e-08
1.13599e-10
4.77231e-08
1.04034e-10
4.76477e-08
9.4831e-11
4.75795e-08
8.58525e-11
4.75183e-08
7.69653e-11
4.74642e-08
6.80395e-11
4.74173e-08
5.8949e-11
4.73779e-08
4.95704e-11
4.73463e-08
3.97845e-11
4.73228e-08
2.94757e-11
4.73081e-08
1.85339e-11
4.73026e-08
6.85488e-12
4.73071e-08
-5.65854e-12
4.73222e-08
-1.9093e-11
4.73489e-08
-3.35244e-11
4.73878e-08
-4.90278e-11
4.744e-08
-6.56683e-11
4.75064e-08
-8.34999e-11
4.75879e-08
-1.02561e-10
4.76855e-08
-1.22891e-10
4.78004e-08
-1.44511e-10
4.79335e-08
-1.67458e-10
4.80859e-08
-1.91737e-10
4.82587e-08
-2.1741e-10
4.8453e-08
-2.44466e-10
4.867e-08
-2.73041e-10
4.89109e-08
-3.03093e-10
4.91772e-08
-3.34939e-10
4.947e-08
-3.68448e-10
4.97914e-08
-4.0432e-10
5.0143e-08
-4.42347e-10
5.05273e-08
-4.83552e-10
5.09484e-08
-5.29797e-10
5.12482e-08
-3.7723e-10
5.15574e-08
-3.89008e-10
5.18763e-08
-4.01348e-10
5.22061e-08
-4.14947e-10
5.25467e-08
-4.28541e-10
5.28987e-08
-4.42918e-10
5.32628e-08
-4.58115e-10
5.364e-08
-4.74532e-10
5.40314e-08
-4.92519e-10
5.44387e-08
-5.12542e-10
5.48641e-08
-5.35242e-10
5.53102e-08
-5.61317e-10
5.57807e-08
-5.92047e-10
5.628e-08
-6.28308e-10
5.68152e-08
-6.73482e-10
5.73931e-08
-7.27224e-10
5.80304e-08
-8.01932e-10
5.87338e-08
-8.85234e-10
5.95568e-08
-1.03564e-09
6.04829e-08
-1.16549e-09
6.17572e-08
-1.60254e-09
6.32897e-08
-1.92789e-09
6.71433e-08
-4.85525e-09
7.7627e-08
-1.33121e-08
-5.1321e-07
3.55407e-07
2.07172e-07
1.60051e-05
1.6362e-07
6.83723e-08
1.44877e-07
2.93899e-08
1.37511e-07
1.15452e-08
1.3228e-07
8.20016e-09
1.28165e-07
6.45193e-09
1.24969e-07
5.00942e-09
1.22415e-07
4.00401e-09
1.20297e-07
3.32067e-09
1.18514e-07
2.79538e-09
1.16994e-07
2.38219e-09
1.15684e-07
2.05506e-09
1.14542e-07
1.79034e-09
1.13539e-07
1.57226e-09
1.12652e-07
1.39041e-09
1.11863e-07
1.23711e-09
1.11157e-07
1.10656e-09
1.10523e-07
9.94438e-10
1.0995e-07
8.97402e-10
1.09432e-07
8.12849e-10
1.0896e-07
7.38711e-10
1.08531e-07
6.73329e-10
1.08138e-07
6.15348e-10
1.07779e-07
5.63655e-10
1.07449e-07
5.17313e-10
1.07146e-07
4.75531e-10
1.06867e-07
4.37626e-10
1.06609e-07
4.03e-10
1.06373e-07
3.71118e-10
1.06155e-07
3.41497e-10
1.05955e-07
3.13692e-10
1.05772e-07
2.87283e-10
1.05605e-07
2.61877e-10
1.05453e-07
2.37091e-10
1.05318e-07
2.12558e-10
1.05198e-07
1.87921e-10
1.05094e-07
1.62831e-10
1.05007e-07
1.36947e-10
1.04936e-07
1.09941e-10
1.04884e-07
8.14931e-11
1.04852e-07
5.13006e-11
1.04839e-07
1.90752e-11
1.04849e-07
-1.54509e-11
1.04883e-07
-5.25168e-11
1.04941e-07
-9.2332e-11
1.05027e-07
-1.35103e-10
1.05143e-07
-1.81011e-10
1.0529e-07
-2.30203e-10
1.0547e-07
-2.82785e-10
1.05686e-07
-3.38868e-10
1.0594e-07
-3.98506e-10
1.06234e-07
-4.61805e-10
1.06571e-07
-5.28777e-10
1.06953e-07
-5.99592e-10
1.07383e-07
-6.7422e-10
1.07863e-07
-7.53037e-10
1.08396e-07
-8.35921e-10
1.08985e-07
-9.23754e-10
1.09632e-07
-1.01616e-09
1.10343e-07
-1.11509e-09
1.11121e-07
-1.21995e-09
1.11971e-07
-1.33358e-09
1.12902e-07
-1.46105e-09
1.13565e-07
-1.04027e-09
1.14249e-07
-1.0728e-09
1.14954e-07
-1.10678e-09
1.15684e-07
-1.14425e-09
1.16437e-07
-1.18171e-09
1.17215e-07
-1.22132e-09
1.1802e-07
-1.26318e-09
1.18854e-07
-1.3084e-09
1.1972e-07
-1.35794e-09
1.2062e-07
-1.41309e-09
1.2156e-07
-1.4756e-09
1.22547e-07
-1.54741e-09
1.23587e-07
-1.63203e-09
1.2469e-07
-1.73188e-09
1.25873e-07
-1.85627e-09
1.2715e-07
-2.00429e-09
1.28558e-07
-2.21003e-09
1.30112e-07
-2.43963e-09
1.31931e-07
-2.85411e-09
1.33979e-07
-3.21351e-09
1.36797e-07
-4.42051e-09
1.40203e-07
-5.33392e-09
1.48652e-07
-1.3304e-08
1.70947e-07
-3.56075e-08
-8.39153e-07
4.9689e-07
3.87824e-07
2.36739e-05
3.06528e-07
1.49668e-07
2.71455e-07
6.44629e-08
2.57647e-07
2.53539e-08
2.47849e-07
1.79982e-08
2.40141e-07
1.41598e-08
2.34156e-07
1.09946e-08
2.29372e-07
8.7879e-09
2.25405e-07
7.28795e-09
2.22065e-07
6.13506e-09
2.19219e-07
5.2282e-09
2.16764e-07
4.51023e-09
2.14625e-07
3.92922e-09
2.12746e-07
3.45059e-09
2.11085e-07
3.05148e-09
2.09607e-07
2.71502e-09
2.08286e-07
2.42851e-09
2.07098e-07
2.18243e-09
2.06025e-07
1.96946e-09
2.05054e-07
1.7839e-09
2.04172e-07
1.62119e-09
2.03368e-07
1.47769e-09
2.02632e-07
1.35045e-09
2.01959e-07
1.237e-09
2.01341e-07
1.1353e-09
2.00773e-07
1.0436e-09
2.0025e-07
9.60417e-10
1.99769e-07
8.84428e-10
1.99326e-07
8.14464e-10
1.98918e-07
7.49465e-10
1.98543e-07
6.88451e-10
1.982e-07
6.30506e-10
1.97887e-07
5.74761e-10
1.97603e-07
5.20382e-10
1.97349e-07
4.66563e-10
1.97125e-07
4.12518e-10
1.9693e-07
3.57483e-10
1.96766e-07
3.00713e-10
1.96635e-07
2.41484e-10
1.96537e-07
1.79099e-10
1.96476e-07
1.12892e-10
1.96452e-07
4.22315e-11
1.96471e-07
-3.34701e-11
1.96533e-07
-1.14737e-10
1.96642e-07
-2.02028e-10
1.96803e-07
-2.95797e-10
1.97019e-07
-3.96438e-10
1.97293e-07
-5.04275e-10
1.97629e-07
-6.19543e-10
1.98033e-07
-7.4248e-10
1.98508e-07
-8.73209e-10
1.99058e-07
-1.01196e-09
1.99688e-07
-1.15875e-09
2.00402e-07
-1.31397e-09
2.01206e-07
-1.47754e-09
2.02103e-07
-1.65028e-09
2.03099e-07
-1.83193e-09
2.042e-07
-2.02442e-09
2.0541e-07
-2.22693e-09
2.06739e-07
-2.44372e-09
2.08192e-07
-2.67347e-09
2.09781e-07
-2.92246e-09
2.11522e-07
-3.20165e-09
2.12761e-07
-2.27953e-09
2.14039e-07
-2.35085e-09
2.15358e-07
-2.42524e-09
2.16721e-07
-2.50726e-09
2.18128e-07
-2.58925e-09
2.19583e-07
-2.67594e-09
2.21087e-07
-2.76756e-09
2.22645e-07
-2.86652e-09
2.24262e-07
-2.97492e-09
2.25945e-07
-3.09557e-09
2.27702e-07
-3.23234e-09
2.29544e-07
-3.38943e-09
2.31486e-07
-3.57453e-09
2.33547e-07
-3.79299e-09
2.35756e-07
-4.06507e-09
2.38141e-07
-4.38902e-09
2.4077e-07
-4.83886e-09
2.43672e-07
-5.34237e-09
2.47066e-07
-6.24789e-09
2.50896e-07
-7.04341e-09
2.56155e-07
-9.67972e-09
2.62569e-07
-1.17481e-08
2.78141e-07
-2.88759e-08
3.18023e-07
-7.54895e-08
-1.21906e-06
6.97933e-07
6.6933e-07
3.29155e-05
5.29496e-07
2.89501e-07
4.68996e-07
1.24963e-07
4.45125e-07
4.92245e-08
4.28202e-07
3.4921e-08
4.14892e-07
2.74703e-08
4.04556e-07
2.13309e-08
3.96294e-07
1.70497e-08
3.89442e-07
1.41392e-08
3.83675e-07
1.19024e-08
3.7876e-07
1.0143e-08
3.7452e-07
8.75005e-09
3.70827e-07
7.62282e-09
3.67583e-07
6.69423e-09
3.64715e-07
5.91992e-09
3.62163e-07
5.26715e-09
3.5988e-07
4.71129e-09
3.57828e-07
4.23388e-09
3.55977e-07
3.82072e-09
3.543e-07
3.46071e-09
3.52776e-07
3.14504e-09
3.51387e-07
2.86666e-09
3.50118e-07
2.6198e-09
3.48955e-07
2.39971e-09
3.47888e-07
2.20241e-09
3.46907e-07
2.02453e-09
3.46005e-07
1.86316e-09
3.45173e-07
1.71575e-09
3.44408e-07
1.58004e-09
3.43703e-07
1.45396e-09
3.43056e-07
1.33561e-09
3.42463e-07
1.22323e-09
3.41923e-07
1.11511e-09
3.41434e-07
1.00966e-09
3.40995e-07
9.05298e-10
3.40607e-07
8.00509e-10
3.40271e-07
6.93811e-10
3.39988e-07
5.83757e-10
3.3976e-07
4.6895e-10
3.39591e-07
3.48033e-10
3.39484e-07
2.19719e-10
3.39444e-07
8.27821e-11
3.39474e-07
-6.39145e-11
3.39581e-07
-2.21387e-10
3.39769e-07
-3.90525e-10
3.40046e-07
-5.72206e-10
3.40417e-07
-7.67194e-10
3.40888e-07
-9.76119e-10
3.41468e-07
-1.19943e-09
3.42163e-07
-1.43759e-09
3.42981e-07
-1.69084e-09
3.43929e-07
-1.95962e-09
3.45014e-07
-2.24398e-09
3.46245e-07
-2.54464e-09
3.47629e-07
-2.86147e-09
3.49174e-07
-3.19606e-09
3.5089e-07
-3.54788e-09
3.52787e-07
-3.92068e-09
3.54873e-07
-4.31286e-09
3.57162e-07
-4.73267e-09
3.59666e-07
-5.17754e-09
3.62403e-07
-5.65965e-09
3.65401e-07
-6.20001e-09
3.67536e-07
-4.4142e-09
3.69737e-07
-4.55238e-09
3.72008e-07
-4.69628e-09
3.74356e-07
-4.85488e-09
3.7678e-07
-5.01347e-09
3.79285e-07
-5.18111e-09
3.81876e-07
-5.35826e-09
3.84559e-07
-5.54957e-09
3.87343e-07
-5.75911e-09
3.9024e-07
-5.99232e-09
3.93264e-07
-6.25664e-09
3.96435e-07
-6.56024e-09
3.99779e-07
-6.91794e-09
4.03326e-07
-7.34016e-09
4.07126e-07
-7.86578e-09
4.1123e-07
-8.49228e-09
4.15752e-07
-9.36071e-09
4.20746e-07
-1.03372e-08
4.26581e-07
-1.20824e-08
4.33183e-07
-1.36452e-08
4.42219e-07
-1.87164e-08
4.53362e-07
-2.28907e-08
4.79691e-07
-5.52046e-08
5.44923e-07
-1.40722e-07
-1.65835e-06
9.84212e-07
1.10155e-06
4.40466e-05
8.72341e-07
5.18711e-07
7.72838e-07
2.24466e-07
7.33476e-07
8.85868e-08
7.056e-07
6.27966e-08
6.83679e-07
4.93915e-08
6.66655e-07
3.83553e-08
6.53047e-07
3.06574e-08
6.41763e-07
2.54231e-08
6.32264e-07
2.14011e-08
6.2417e-07
1.82375e-08
6.17187e-07
1.57327e-08
6.11104e-07
1.37058e-08
6.05762e-07
1.20362e-08
6.01038e-07
1.06439e-08
5.96835e-07
9.47017e-09
5.93076e-07
8.4707e-09
5.89697e-07
7.6123e-09
5.86649e-07
6.86941e-09
5.83887e-07
6.22211e-09
5.81378e-07
5.65455e-09
5.79091e-07
5.15402e-09
5.77e-07
4.71018e-09
5.75085e-07
4.31446e-09
5.73328e-07
3.95973e-09
5.71713e-07
3.63992e-09
5.70226e-07
3.3498e-09
5.68857e-07
3.08479e-09
5.67596e-07
2.84081e-09
5.66436e-07
2.61415e-09
5.6537e-07
2.40142e-09
5.64394e-07
2.19941e-09
5.63504e-07
2.0051e-09
5.62698e-07
1.81558e-09
5.61976e-07
1.62805e-09
5.61336e-07
1.43977e-09
5.60782e-07
1.24808e-09
5.60315e-07
1.05039e-09
5.5994e-07
8.44173e-10
5.59661e-07
6.2701e-10
5.59484e-07
3.9658e-10
5.59416e-07
1.50687e-10
5.59465e-07
-1.12711e-10
5.59639e-07
-3.9544e-10
5.59948e-07
-6.99095e-10
5.60401e-07
-1.02525e-09
5.61009e-07
-1.37528e-09
5.61783e-07
-1.75031e-09
5.62735e-07
-2.15116e-09
5.63876e-07
-2.57864e-09
5.65218e-07
-3.03319e-09
5.66774e-07
-3.51558e-09
5.68556e-07
-4.02593e-09
5.70577e-07
-4.56551e-09
5.7285e-07
-5.13409e-09
5.75388e-07
-5.7345e-09
5.78206e-07
-6.36582e-09
5.8132e-07
-7.03472e-09
5.84746e-07
-7.73838e-09
5.88505e-07
-8.49153e-09
5.92617e-07
-9.28958e-09
5.97111e-07
-1.01544e-08
6.02035e-07
-1.11232e-08
6.05539e-07
-7.91911e-09
6.09154e-07
-8.16711e-09
6.12883e-07
-8.42496e-09
6.16737e-07
-8.70898e-09
6.20717e-07
-8.99308e-09
6.24829e-07
-9.2933e-09
6.29081e-07
-9.61053e-09
6.33485e-07
-9.95307e-09
6.38054e-07
-1.03282e-08
6.42807e-07
-1.07456e-08
6.47769e-07
-1.12187e-08
6.52971e-07
-1.1762e-08
6.58455e-07
-1.24021e-08
6.64272e-07
-1.31577e-08
6.70505e-07
-1.40979e-08
6.77232e-07
-1.52201e-08
6.84644e-07
-1.67719e-08
6.92834e-07
-1.85273e-08
7.02389e-07
-2.1638e-08
7.13236e-07
-2.44921e-08
7.2802e-07
-3.35005e-08
7.46471e-07
-4.13418e-08
7.88679e-07
-9.74127e-08
8.89354e-07
-2.41396e-07
-2.16152e-06
1.39252e-06
1.75774e-06
5.7444e-05
1.39376e-06
8.82691e-07
1.23511e-06
3.83112e-07
1.17216e-06
1.51545e-07
1.12763e-06
1.07326e-07
1.09262e-06
8.44003e-08
1.06543e-06
6.55467e-08
1.04369e-06
5.23916e-08
1.02567e-06
4.34449e-08
1.0105e-06
3.65714e-08
9.97572e-07
3.11651e-08
9.86421e-07
2.68845e-08
9.76706e-07
2.34207e-08
9.68175e-07
2.05674e-08
9.6063e-07
1.81881e-08
9.53918e-07
1.61823e-08
9.47915e-07
1.44744e-08
9.42519e-07
1.30075e-08
9.37651e-07
1.1738e-08
9.33241e-07
1.06319e-08
9.29234e-07
9.66203e-09
9.25581e-07
8.80674e-09
9.22243e-07
8.0483e-09
9.19185e-07
7.37213e-09
9.16379e-07
6.76599e-09
9.13799e-07
6.21953e-09
9.11425e-07
5.72382e-09
9.09239e-07
5.27102e-09
9.07226e-07
4.85417e-09
9.05373e-07
4.46695e-09
9.03671e-07
4.10353e-09
9.02112e-07
3.75847e-09
9.00691e-07
3.42659e-09
8.99403e-07
3.10293e-09
8.98249e-07
2.7827e-09
8.97227e-07
2.46123e-09
8.96341e-07
2.13399e-09
8.95595e-07
1.79654e-09
8.94995e-07
1.4446e-09
8.94547e-07
1.07401e-09
8.94263e-07
6.80828e-10
8.94153e-07
2.61304e-10
8.94228e-07
-1.88046e-10
8.94503e-07
-6.70334e-10
8.94992e-07
-1.18829e-09
8.95711e-07
-1.74458e-09
8.96677e-07
-2.34156e-09
8.97908e-07
-2.98115e-09
8.99422e-07
-3.66472e-09
9.01237e-07
-4.39369e-09
9.03372e-07
-5.16878e-09
9.05848e-07
-5.99132e-09
9.08684e-07
-6.86149e-09
9.119e-07
-7.78144e-09
9.15517e-07
-8.7508e-09
9.19557e-07
-9.77436e-09
9.24042e-07
-1.08506e-08
9.28998e-07
-1.19907e-08
9.3445e-07
-1.31901e-08
9.40432e-07
-1.44736e-08
9.46976e-07
-1.58336e-08
9.54128e-07
-1.7307e-08
9.61962e-07
-1.8957e-08
9.67539e-07
-1.34959e-08
9.7329e-07
-1.39187e-08
9.79223e-07
-1.43575e-08
9.85354e-07
-1.48405e-08
9.91685e-07
-1.53238e-08
9.98226e-07
-1.58344e-08
1.00499e-06
-1.63738e-08
1.01199e-06
-1.69561e-08
1.01926e-06
-1.75937e-08
1.02682e-06
-1.83031e-08
1.0347e-06
-1.9107e-08
1.04297e-06
-2.00302e-08
1.05169e-06
-2.11174e-08
1.06093e-06
-2.24015e-08
1.07083e-06
-2.39979e-08
1.08152e-06
-2.59064e-08
1.09328e-06
-2.85377e-08
1.10629e-06
-3.15363e-08
1.12145e-06
-3.67934e-08
1.13871e-06
-4.17587e-08
1.16212e-06
-5.69065e-08
1.1917e-06
-7.09245e-08
1.25686e-06
-1.62566e-07
1.40558e-06
-3.90119e-07
-2.73144e-06
1.9755e-06
2.74516e-06
7.35554e-05
2.18005e-06
1.4478e-06
1.93254e-06
6.3063e-07
1.83393e-06
2.5015e-07
1.7643e-06
1.76959e-07
1.70957e-06
1.3913e-07
1.66706e-06
1.08061e-07
1.63307e-06
8.63737e-08
1.6049e-06
7.16205e-08
1.58118e-06
6.02886e-08
1.56097e-06
5.13757e-08
1.54354e-06
4.43187e-08
1.52835e-06
3.86082e-08
1.51501e-06
3.39042e-08
1.50322e-06
2.99818e-08
1.49272e-06
2.66752e-08
1.48334e-06
2.38596e-08
1.47491e-06
2.14414e-08
1.46729e-06
1.93487e-08
1.4604e-06
1.75253e-08
1.45414e-06
1.59265e-08
1.44843e-06
1.45166e-08
1.44321e-06
1.32664e-08
1.43843e-06
1.21518e-08
1.43404e-06
1.11526e-08
1.43001e-06
1.02519e-08
1.4263e-06
9.43481e-09
1.42288e-06
8.68851e-09
1.41973e-06
8.00149e-09
1.41684e-06
7.36334e-09
1.41418e-06
6.76447e-09
1.41174e-06
6.1959e-09
1.40952e-06
5.64912e-09
1.4075e-06
5.11595e-09
1.4057e-06
4.58852e-09
1.4041e-06
4.05913e-09
1.40271e-06
3.52031e-09
1.40155e-06
2.96478e-09
1.40061e-06
2.38548e-09
1.3999e-06
1.77559e-09
1.39946e-06
1.12859e-09
1.39928e-06
4.38337e-10
1.39939e-06
-3.00911e-10
1.39982e-06
-1.09427e-09
1.40057e-06
-1.94623e-09
1.40169e-06
-2.86118e-09
1.40319e-06
-3.84298e-09
1.4051e-06
-4.89479e-09
1.40746e-06
-6.01887e-09
1.41028e-06
-7.21753e-09
1.41361e-06
-8.49196e-09
1.41746e-06
-9.84434e-09
1.42187e-06
-1.12749e-08
1.42688e-06
-1.27873e-08
1.43251e-06
-1.43808e-08
1.4388e-06
-1.60633e-08
1.44578e-06
-1.78322e-08
1.4535e-06
-1.9706e-08
1.46198e-06
-2.16771e-08
1.47129e-06
-2.37859e-08
1.48148e-06
-2.60205e-08
1.49262e-06
-2.84407e-08
1.50481e-06
-3.11494e-08
1.51349e-06
-2.21751e-08
1.52244e-06
-2.287e-08
1.53167e-06
-2.35899e-08
1.54121e-06
-2.43813e-08
1.55106e-06
-2.51738e-08
1.56124e-06
-2.60105e-08
1.57176e-06
-2.68944e-08
1.58265e-06
-2.78483e-08
1.59395e-06
-2.88925e-08
1.6057e-06
-3.00542e-08
1.61796e-06
-3.13701e-08
1.63081e-06
-3.28815e-08
1.64436e-06
-3.46607e-08
1.65872e-06
-3.67628e-08
1.67409e-06
-3.93736e-08
1.69069e-06
-4.25012e-08
1.70895e-06
-4.67973e-08
1.72915e-06
-5.1736e-08
1.75264e-06
-6.02835e-08
1.77951e-06
-6.86299e-08
1.81569e-06
-9.30833e-08
1.86198e-06
-1.17221e-07
1.95957e-06
-2.60153e-07
2.17131e-06
-6.01854e-07
-3.3685e-06
2.80837e-06
4.22035e-06
9.29098e-05
3.35779e-06
2.31035e-06
2.97774e-06
1.01069e-06
2.82563e-06
4.02257e-07
2.71841e-06
2.84175e-07
2.63417e-06
2.23369e-07
2.56873e-06
1.73508e-07
2.51641e-06
1.38688e-07
2.47304e-06
1.14992e-07
2.43653e-06
9.67966e-08
2.40542e-06
8.24859e-08
2.37859e-06
7.11545e-08
2.35521e-06
6.19853e-08
2.33468e-06
5.44325e-08
2.31653e-06
4.81346e-08
2.30038e-06
4.28256e-08
2.28593e-06
3.83048e-08
2.27295e-06
3.44223e-08
2.26124e-06
3.10623e-08
2.25063e-06
2.81348e-08
2.24099e-06
2.5568e-08
2.2322e-06
2.33044e-08
2.22417e-06
2.12972e-08
2.21681e-06
1.95078e-08
2.21006e-06
1.79038e-08
2.20386e-06
1.64579e-08
2.19814e-06
1.51462e-08
2.19288e-06
1.39483e-08
2.18804e-06
1.28455e-08
2.18358e-06
1.18213e-08
2.17949e-06
1.08602e-08
2.17574e-06
9.9479e-09
2.17231e-06
9.07064e-09
2.16921e-06
8.21538e-09
2.16643e-06
7.36945e-09
2.16397e-06
6.52056e-09
2.16184e-06
5.65672e-09
2.16003e-06
4.76626e-09
2.15858e-06
3.83788e-09
2.1575e-06
2.86064e-09
2.1568e-06
1.82413e-09
2.15652e-06
7.18474e-10
2.15669e-06
-4.65498e-10
2.15733e-06
-1.73599e-09
2.15848e-06
-3.10017e-09
2.16018e-06
-4.5651e-09
2.16248e-06
-6.13691e-09
2.1654e-06
-7.82068e-09
2.169e-06
-9.62002e-09
2.17333e-06
-1.15386e-08
2.17841e-06
-1.35783e-08
2.18431e-06
-1.57427e-08
2.19107e-06
-1.80321e-08
2.19873e-06
-2.04521e-08
2.20735e-06
-2.30018e-08
2.21699e-06
-2.56936e-08
2.22768e-06
-2.85236e-08
2.23949e-06
-3.15209e-08
2.25249e-06
-3.46737e-08
2.26675e-06
-3.80459e-08
2.28235e-06
-4.16192e-08
2.2994e-06
-4.5488e-08
2.31806e-06
-4.98152e-08
2.33135e-06
-3.54616e-08
2.34505e-06
-3.65731e-08
2.35918e-06
-3.77221e-08
2.37378e-06
-3.89834e-08
2.38886e-06
-4.02475e-08
2.40443e-06
-4.15811e-08
2.42052e-06
-4.29898e-08
2.43719e-06
-4.45095e-08
2.45447e-06
-4.61727e-08
2.47243e-06
-4.80225e-08
2.49118e-06
-5.01174e-08
2.51082e-06
-5.25231e-08
2.53152e-06
-5.5354e-08
2.55345e-06
-5.87e-08
2.57693e-06
-6.28506e-08
2.60226e-06
-6.78344e-08
2.63012e-06
-7.465e-08
2.66095e-06
-8.25645e-08
2.69672e-06
-9.60538e-08
2.73781e-06
-1.09727e-07
2.79267e-06
-1.47944e-07
2.86368e-06
-1.8823e-07
3.00603e-06
-4.02503e-07
3.29739e-06
-8.93207e-07
-4.06959e-06
3.99848e-06
6.41098e-06
0.000116128
5.1122e-06
3.60914e-06
4.53575e-06
1.58713e-06
4.30375e-06
6.34258e-07
4.14058e-06
4.47344e-07
4.01243e-06
3.51514e-07
3.91286e-06
2.73085e-07
3.83326e-06
2.18285e-07
3.76727e-06
1.80978e-07
3.71173e-06
1.52338e-07
3.6644e-06
1.29815e-07
3.62358e-06
1.1198e-07
3.58802e-06
9.7548e-08
3.55679e-06
8.56607e-08
3.52917e-06
7.57487e-08
3.50461e-06
6.73931e-08
3.48263e-06
6.02783e-08
3.46289e-06
5.4168e-08
3.44507e-06
4.88801e-08
3.42893e-06
4.42729e-08
3.41427e-06
4.02334e-08
3.4009e-06
3.66712e-08
3.38868e-06
3.35126e-08
3.37749e-06
3.06967e-08
3.36723e-06
2.81727e-08
3.35779e-06
2.58974e-08
3.3491e-06
2.38336e-08
3.3411e-06
2.19487e-08
3.33373e-06
2.02138e-08
3.32695e-06
1.86027e-08
3.32072e-06
1.7091e-08
3.31501e-06
1.56561e-08
3.30981e-06
1.42767e-08
3.30509e-06
1.29321e-08
3.30086e-06
1.16025e-08
3.29711e-06
1.02685e-08
3.29385e-06
8.91143e-09
3.29111e-06
7.51284e-09
3.28889e-06
6.05501e-09
3.28723e-06
4.52079e-09
3.28616e-06
2.89386e-09
3.28572e-06
1.1587e-09
3.28595e-06
-6.99057e-10
3.28691e-06
-2.69229e-09
3.28864e-06
-4.83225e-09
3.2912e-06
-7.12999e-09
3.29466e-06
-9.59511e-09
3.29908e-06
-1.22356e-08
3.30451e-06
-1.5057e-08
3.31104e-06
-1.80652e-08
3.31872e-06
-2.12631e-08
3.32764e-06
-2.46561e-08
3.33785e-06
-2.82449e-08
3.34944e-06
-3.2038e-08
3.36247e-06
-3.60342e-08
3.37703e-06
-4.02524e-08
3.3932e-06
-4.4687e-08
3.41106e-06
-4.93828e-08
3.43071e-06
-5.4322e-08
3.45226e-06
-5.96032e-08
3.47584e-06
-6.51995e-08
3.50161e-06
-7.12559e-08
3.52982e-06
-7.80246e-08
3.5499e-06
-5.55396e-08
3.57061e-06
-5.72809e-08
3.59196e-06
-5.90761e-08
3.61402e-06
-6.10434e-08
3.63679e-06
-6.30169e-08
3.66031e-06
-6.50973e-08
3.68461e-06
-6.72943e-08
3.70976e-06
-6.96634e-08
3.73585e-06
-7.22551e-08
3.76296e-06
-7.51369e-08
3.79124e-06
-7.83993e-08
3.82087e-06
-8.21451e-08
3.85206e-06
-8.65508e-08
3.88512e-06
-9.17601e-08
3.92048e-06
-9.82126e-08
3.95863e-06
-1.05981e-07
4.00053e-06
-1.16548e-07
4.04693e-06
-1.28961e-07
4.10061e-06
-1.49741e-07
4.16257e-06
-1.7168e-07
4.24441e-06
-2.29782e-07
4.35132e-06
-2.95142e-07
4.55377e-06
-6.04956e-07
4.94146e-06
-1.28089e-06
-4.82701e-06
5.69888e-06
9.647e-06
0.000143934
7.71365e-06
5.54249e-06
6.84786e-06
2.45292e-06
6.49706e-06
9.85061e-07
6.25099e-06
6.93411e-07
6.05785e-06
5.44662e-07
5.90772e-06
4.2321e-07
5.78772e-06
3.3829e-07
5.68824e-06
2.8045e-07
5.60452e-06
2.36065e-07
5.53317e-06
2.0116e-07
5.47163e-06
1.73519e-07
5.41802e-06
1.51154e-07
5.37095e-06
1.32732e-07
5.32933e-06
1.17372e-07
5.2923e-06
1.04423e-07
5.25918e-06
9.33977e-08
5.22942e-06
8.3929e-08
5.20256e-06
7.5735e-08
5.17824e-06
6.85958e-08
5.15614e-06
6.23364e-08
5.13599e-06
5.68168e-08
5.11758e-06
5.19226e-08
5.10072e-06
4.75596e-08
5.08525e-06
4.3649e-08
5.07102e-06
4.01238e-08
5.05793e-06
3.69265e-08
5.04587e-06
3.40066e-08
5.03476e-06
3.13193e-08
5.02454e-06
2.88239e-08
5.01515e-06
2.64829e-08
5.00655e-06
2.42613e-08
4.9987e-06
2.2126e-08
4.99158e-06
2.00451e-08
4.9852e-06
1.79879e-08
4.97954e-06
1.59246e-08
4.97463e-06
1.3826e-08
4.97048e-06
1.1664e-08
4.96712e-06
9.41102e-09
4.9646e-06
7.04062e-09
4.96297e-06
4.52757e-09
4.96228e-06
1.84796e-09
4.9626e-06
-1.02043e-09
4.964e-06
-4.09746e-09
4.96657e-06
-7.40049e-09
4.97039e-06
-1.09466e-08
4.97554e-06
-1.47505e-08
4.98213e-06
-1.88245e-08
4.99025e-06
-2.31773e-08
5e-06
-2.78178e-08
5.01149e-06
-3.27504e-08
5.02482e-06
-3.79834e-08
5.04009e-06
-4.35178e-08
5.05742e-06
-4.93667e-08
5.07692e-06
-5.55282e-08
5.0987e-06
-6.2031e-08
5.12288e-06
-6.88669e-08
5.1496e-06
-7.61036e-08
5.17899e-06
-8.37151e-08
5.21124e-06
-9.18503e-08
5.24651e-06
-1.00471e-07
5.28505e-06
-1.09795e-07
5.32723e-06
-1.20207e-07
5.35725e-06
-8.556e-08
5.38821e-06
-8.82428e-08
5.42014e-06
-9.1e-08
5.45311e-06
-9.40155e-08
5.48714e-06
-9.70435e-08
5.52227e-06
-1.00233e-07
5.55858e-06
-1.03599e-07
5.59614e-06
-1.07228e-07
5.63508e-06
-1.11195e-07
5.67555e-06
-1.15605e-07
5.71775e-06
-1.20595e-07
5.76192e-06
-1.26323e-07
5.80843e-06
-1.33056e-07
5.85769e-06
-1.4102e-07
5.91034e-06
-1.50866e-07
5.96712e-06
-1.62755e-07
6.0294e-06
-1.78829e-07
6.09838e-06
-1.9795e-07
6.17795e-06
-2.29304e-07
6.27014e-06
-2.63869e-07
6.39036e-06
-3.50005e-07
6.54833e-06
-4.53111e-07
6.82889e-06
-8.8552e-07
7.32727e-06
-1.77926e-06
-5.62743e-06
8.12769e-06
1.44046e-05
0.000177158
1.15559e-05
8.39121e-06
1.02661e-05
3.74265e-06
9.73931e-06
1.5119e-06
9.37093e-06
1.06179e-06
9.08196e-06
8.33629e-07
8.8573e-06
6.47875e-07
8.6777e-06
5.17889e-07
8.52885e-06
4.29301e-07
8.40356e-06
3.6135e-07
8.2968e-06
3.07917e-07
8.20472e-06
2.65601e-07
8.12451e-06
2.31362e-07
8.05408e-06
2.03161e-07
7.99181e-06
1.79647e-07
7.93641e-06
1.59825e-07
7.88686e-06
1.42948e-07
7.84233e-06
1.28454e-07
7.80215e-06
1.15911e-07
7.76577e-06
1.04983e-07
7.7327e-06
9.54026e-08
7.70256e-06
8.69543e-08
7.67502e-06
7.94634e-08
7.6498e-06
7.27858e-08
7.62665e-06
6.68007e-08
7.60537e-06
6.14059e-08
7.58578e-06
5.65131e-08
7.56774e-06
5.20453e-08
7.55113e-06
4.79337e-08
7.53584e-06
4.41163e-08
7.52178e-06
4.05357e-08
7.50891e-06
3.71385e-08
7.49716e-06
3.3874e-08
7.48651e-06
3.06936e-08
7.47695e-06
2.75505e-08
7.46847e-06
2.43991e-08
7.4611e-06
2.11951e-08
7.45487e-06
1.78953e-08
7.44982e-06
1.44578e-08
7.44602e-06
1.08424e-08
7.44354e-06
7.01054e-09
7.44246e-06
2.92579e-09
7.44288e-06
-1.44567e-09
7.44492e-06
-6.13413e-09
7.44869e-06
-1.1166e-08
7.4543e-06
-1.65672e-08
7.46191e-06
-2.23603e-08
7.47165e-06
-2.85638e-08
7.48367e-06
-3.51911e-08
7.4981e-06
-4.22553e-08
7.51512e-06
-4.97635e-08
7.53486e-06
-5.77279e-08
7.55749e-06
-6.61501e-08
7.58318e-06
-7.50496e-08
7.61208e-06
-8.44236e-08
7.64436e-06
-9.43152e-08
7.68021e-06
-1.04712e-07
7.71983e-06
-1.15716e-07
7.7634e-06
-1.27289e-07
7.8112e-06
-1.39651e-07
7.86349e-06
-1.52752e-07
7.9206e-06
-1.66913e-07
7.9831e-06
-1.82707e-07
8.02758e-06
-1.30035e-07
8.07344e-06
-1.34112e-07
8.12073e-06
-1.38287e-07
8.16956e-06
-1.42842e-07
8.21993e-06
-1.47421e-07
8.27194e-06
-1.52238e-07
8.32566e-06
-1.57321e-07
8.38123e-06
-1.62795e-07
8.43881e-06
-1.68778e-07
8.49863e-06
-1.75424e-07
8.56097e-06
-1.8294e-07
8.62621e-06
-1.91564e-07
8.69485e-06
-2.01692e-07
8.76751e-06
-2.13676e-07
8.8451e-06
-2.28461e-07
8.92871e-06
-2.46367e-07
9.02029e-06
-2.70404e-07
9.12172e-06
-2.99388e-07
9.23823e-06
-3.45811e-07
9.37366e-06
-3.993e-07
9.54755e-06
-5.23896e-07
9.77623e-06
-6.81784e-07
1.01544e-05
-1.26368e-06
1.07722e-05
-2.39706e-06
-6.45098e-06
1.15957e-05
2.13678e-05
0.000216742
1.72107e-05
1.25483e-05
1.53031e-05
5.65027e-06
1.45162e-05
2.29878e-06
1.39681e-05
1.60992e-06
1.35384e-05
1.26327e-06
1.32043e-05
9.82028e-07
1.29371e-05
7.85032e-07
1.27157e-05
6.50673e-07
1.25294e-05
5.4767e-07
1.23707e-05
4.6668e-07
1.22337e-05
4.02536e-07
1.21145e-05
3.50635e-07
1.20097e-05
3.0789e-07
1.19171e-05