/*--------------------------------*- C++ -*----------------------------------*\
| =========                 |                                                 |
| \\      /  F ield         | OpenFOAM: The Open Source CFD Toolbox           |
|  \\    /   O peration     | Version:  2506                                  |
|   \\  /    A nd           | Website:  www.openfoam.com                      |
|    \\/     M anipulation  |                                                 |
\*---------------------------------------------------------------------------*/
FoamFile
{
    version     2.0;
    format      ascii;
    arch        "LSB;label=32;scalar=64";
    class       volVectorField;
    location    "1000";
    object      U;
}
// * * * * * * * * * * * * * * * * * * * * * * * * * * * * * * * * * * * * * //

dimensions      [0 1 -1 0 0 0 0];

internalField   nonuniform List<vector> 
20540
(
(0.44128 3.89603e-05 0)
(0.421329 5.04293e-05 0)
(0.442113 0.00012496 0)
(0.42222 0.0001616 0)
(0.443206 0.000228819 0)
(0.42339 0.000295655 0)
(0.444618 0.000354168 0)
(0.424904 0.000457212 0)
(0.446422 0.000505357 0)
(0.42684 0.000651819 0)
(0.448698 0.000687571 0)
(0.429288 0.000886088 0)
(0.451542 0.000906958 0)
(0.432354 0.00116787 0)
(0.455066 0.00117079 0)
(0.436163 0.00150649 0)
(0.459402 0.00148759 0)
(0.440864 0.00191291 0)
(0.464705 0.00186733 0)
(0.446636 0.0024 0)
(0.471157 0.00232154 0)
(0.453687 0.00298274 0)
(0.478965 0.00286335 0)
(0.462265 0.00367837 0)
(0.488369 0.00350759 0)
(0.472661 0.00450653 0)
(0.499641 0.00427056 0)
(0.485211 0.00548913 0)
(0.51308 0.00516968 0)
(0.500306 0.00665013 0)
(0.529014 0.00622279 0)
(0.518385 0.00801473 0)
(0.547788 0.00744686 0)
(0.539942 0.00960809 0)
(0.569749 0.00885599 0)
(0.565516 0.011453 0)
(0.595227 0.0104584 0)
(0.595672 0.0135661 0)
(0.624497 0.0122518 0)
(0.630977 0.0159525 0)
(0.657738 0.0142174 0)
(0.671949 0.0185974 0)
(0.694971 0.0163115 0)
(0.718978 0.0214546 0)
(0.735988 0.0184544 0)
(0.772224 0.024431 0)
(0.780269 0.0205187 0)
(0.831463 0.0273671 0)
(0.826908 0.0223148 0)
(0.895905 0.0300153 0)
(0.874547 0.0235802 0)
(0.963995 0.0320193 0)
(0.921371 0.0239738 0)
(1.03325 0.0329034 0)
(0.96518 0.0230834 0)
(1.10023 0.032089 0)
(1.00358 0.0204593 0)
(1.16074 0.0289575 0)
(1.03427 0.0156836 0)
(1.21031 0.0229449 0)
(1.0528 0.00927674 0)
(1.2407 0.0146426 0)
(1.06096 0.00237428 0)
(1.254 0.00553334 0)
(1.06075 -0.00470706 0)
(1.25318 -0.00387471 0)
(1.05208 -0.0115609 0)
(1.23808 -0.0129487 0)
(1.03309 -0.0177639 0)
(1.20599 -0.0210814 0)
(1.0026 -0.0222896 0)
(1.15597 -0.0269718 0)
(0.964574 -0.0247579 0)
(1.09561 -0.0301804 0)
(0.921186 -0.0255607 0)
(1.02909 -0.0312167 0)
(0.874694 -0.0251186 0)
(0.960349 -0.030636 0)
(0.827188 -0.0238197 0)
(0.892611 -0.0289615 0)
(0.780419 -0.0219884 0)
(0.828238 -0.0266292 0)
(0.735722 -0.0198783 0)
(0.768745 -0.0239723 0)
(0.69402 -0.0176753 0)
(0.714942 -0.0212281 0)
(0.655874 -0.0155075 0)
(0.667102 -0.0185543 0)
(0.621544 -0.0134572 0)
(0.625132 -0.0160476 0)
(0.591065 -0.0115716 0)
(0.588704 -0.01376 0)
(0.564312 -0.00987319 0)
(0.557358 -0.0117132 0)
(0.541057 -0.00836752 0)
(0.530577 -0.00990871 0)
(0.521009 -0.00704901 0)
(0.507831 -0.00833584 0)
(0.503847 -0.00590557 0)
(0.488608 -0.00697689 0)
(0.489248 -0.00492161 0)
(0.472434 -0.0058109 0)
(0.476897 -0.00408014 0)
(0.458879 -0.004816 0)
(0.466502 -0.00336416 0)
(0.44756 -0.00397082 0)
(0.457794 -0.00275744 0)
(0.438142 -0.00325539 0)
(0.450532 -0.00224505 0)
(0.430332 -0.00265153 0)
(0.444504 -0.00181351 0)
(0.423882 -0.00214305 0)
(0.439525 -0.00145088 0)
(0.418574 -0.0017157 0)
(0.435433 -0.00114674 0)
(0.414229 -0.00135709 0)
(0.43209 -0.000892033 0)
(0.410689 -0.00105656 0)
(0.429379 -0.000679007 0)
(0.407825 -0.000804965 0)
(0.427197 -0.000501029 0)
(0.405525 -0.000594521 0)
(0.42546 -0.000352461 0)
(0.403697 -0.000418625 0)
(0.424092 -0.000228533 0)
(0.40226 -0.000271689 0)
(0.423032 -0.000125215 0)
(0.401148 -0.000149 0)
(0.422221 -3.91312e-05 0)
(0.400298 -4.66082e-05 0)
(0.000981574 4.94058e-05 0)
(0.000888602 6.70268e-09 0)
(0.000802786 3.13389e-09 0)
(0.000804374 5.39754e-10 0)
(0.000789772 7.0273e-10 0)
(0.000787021 2.65592e-10 0)
(0.000783608 2.14371e-10 0)
(0.000782149 1.16978e-10 0)
(0.000781067 8.03622e-11 0)
(0.00078046 5.00393e-11 0)
(0.000780056 3.35961e-11 0)
(0.000779805 2.21729e-11 0)
(0.00077964 1.50863e-11 0)
(0.000779533 1.03219e-11 0)
(0.000779461 7.18644e-12 0)
(0.000779412 5.05854e-12 0)
(0.000779379 3.60887e-12 0)
(0.000779356 2.60411e-12 0)
(0.00077934 1.90032e-12 0)
(0.000779329 1.39997e-12 0)
(0.00077932 1.03871e-12 0)
(0.000779315 7.72063e-13 0)
(0.000779311 5.68607e-13 0)
(0.000779308 4.04679e-13 0)
(0.000779306 2.60804e-13 0)
(0.000779305 1.18951e-13 0)
(0.000779304 -4.01139e-14 0)
(0.000779305 -2.39173e-13 0)
(0.000779307 -5.07104e-13 0)
(0.00077931 -8.81804e-13 0)
(0.000779316 -1.41364e-12 0)
(0.000779324 -2.16956e-12 0)
(0.000779335 -3.23774e-12 0)
(0.000779352 -4.73326e-12 0)
(0.000779374 -6.80422e-12 0)
(0.000779406 -9.63908e-12 0)
(0.000779449 -1.34744e-11 0)
(0.000779506 -1.86033e-11 0)
(0.000779583 -2.53847e-11 0)
(0.000779682 -3.42526e-11 0)
(0.000779811 -4.57252e-11 0)
(0.000779976 -6.04152e-11 0)
(0.000780185 -7.90384e-11 0)
(0.000780447 -1.02423e-10 0)
(0.000780773 -1.31518e-10 0)
(0.000781175 -1.674e-10 0)
(0.000781666 -2.11286e-10 0)
(0.000782262 -2.64536e-10 0)
(0.000782977 -3.28664e-10 0)
(0.000783831 -4.05355e-10 0)
(0.000784842 -4.96475e-10 0)
(0.000786031 -6.04097e-10 0)
(0.000787422 -7.30531e-10 0)
(0.000789038 -8.78374e-10 0)
(0.000790905 -1.05057e-09 0)
(0.000793052 -1.25051e-09 0)
(0.00079551 -1.48217e-09 0)
(0.000798311 -1.75024e-09 0)
(0.000801493 -2.06057e-09 0)
(0.000805099 -2.41996e-09 0)
(0.000809174 -2.83854e-09 0)
(0.00081378 -3.32542e-09 0)
(0.000818973 -3.90374e-09 0)
(0.000823894 -4.4735e-09 0)
(0.000828085 -4.97163e-09 0)
(0.000832496 -5.52393e-09 0)
(0.000837171 -6.14408e-09 0)
(0.000842109 -6.82932e-09 0)
(0.000847332 -7.5965e-09 0)
(0.000852859 -8.4564e-09 0)
(0.000858713 -9.4268e-09 0)
(0.000864924 -1.05277e-08 0)
(0.000871528 -1.17847e-08 0)
(0.000878567 -1.32303e-08 0)
(0.000886095 -1.49063e-08 0)
(0.000894177 -1.68704e-08 0)
(0.000902899 -1.92038e-08 0)
(0.000912373 -2.20368e-08 0)
(0.000922765 -2.55726e-08 0)
(0.00093431 -3.01991e-08 0)
(0.000947429 -3.65612e-08 0)
(0.000962739 -4.61205e-08 0)
(0.000981618 -6.15123e-08 0)
(0.00100616 -9.00404e-08 0)
(0.00104235 -1.49986e-07 0)
(0.00110226 -3.39694e-07 0)
(0.00124895 -1.30483e-06 0)
(0.00180976 -0.000291142 0)
(0.00314848 0.000158305 0)
(0.00285084 1.04402e-07 0)
(0.00257582 4.98457e-08 0)
(0.00258084 8.41628e-09 0)
(0.00253403 1.115e-08 0)
(0.0025252 4.18512e-09 0)
(0.00251426 3.39336e-09 0)
(0.00250958 1.84736e-09 0)
(0.00250611 1.27071e-09 0)
(0.00250416 7.90629e-10 0)
(0.00250287 5.3098e-10 0)
(0.00250206 3.50339e-10 0)
(0.00250153 2.38367e-10 0)
(0.00250119 1.63059e-10 0)
(0.00250096 1.13511e-10 0)
(0.0025008 7.98827e-11 0)
(0.0025007 5.69751e-11 0)
(0.00250062 4.10981e-11 0)
(0.00250057 2.99769e-11 0)
(0.00250053 2.20707e-11 0)
(0.00250051 1.63613e-11 0)
(0.00250049 1.21464e-11 0)
(0.00250048 8.92855e-12 0)
(0.00250047 6.33349e-12 0)
(0.00250046 4.05267e-12 0)
(0.00250046 1.79889e-12 0)
(0.00250046 -7.33408e-13 0)
(0.00250046 -3.90735e-12 0)
(0.00250046 -8.18402e-12 0)
(0.00250048 -1.41685e-11 0)
(0.00250049 -2.26661e-11 0)
(0.00250052 -3.47463e-11 0)
(0.00250055 -5.18188e-11 0)
(0.00250061 -7.57224e-11 0)
(0.00250068 -1.08825e-10 0)
(0.00250078 -1.54139e-10 0)
(0.00250092 -2.15445e-10 0)
(0.0025011 -2.97429e-10 0)
(0.00250135 -4.05828e-10 0)
(0.00250167 -5.47576e-10 0)
(0.00250208 -7.30962e-10 0)
(0.00250261 -9.65774e-10 0)
(0.00250328 -1.26345e-09 0)
(0.00250412 -1.63724e-09 0)
(0.00250516 -2.1023e-09 0)
(0.00250645 -2.67585e-09 0)
(0.00250803 -3.37733e-09 0)
(0.00250994 -4.22847e-09 0)
(0.00251223 -5.2535e-09 0)
(0.00251496 -6.47931e-09 0)
(0.00251821 -7.93573e-09 0)
(0.00252202 -9.6559e-09 0)
(0.00252648 -1.16767e-08 0)
(0.00253166 -1.40397e-08 0)
(0.00253764 -1.67918e-08 0)
(0.00254452 -1.99874e-08 0)
(0.0025524 -2.36897e-08 0)
(0.00256138 -2.79739e-08 0)
(0.00257158 -3.29332e-08 0)
(0.00258314 -3.86764e-08 0)
(0.0025962 -4.53655e-08 0)
(0.00261096 -5.31441e-08 0)
(0.00262761 -6.23882e-08 0)
(0.00264338 -7.1466e-08 0)
(0.00265682 -7.94618e-08 0)
(0.00267095 -8.82649e-08 0)
(0.00268594 -9.81811e-08 0)
(0.00270176 -1.09124e-07 0)
(0.00271851 -1.21381e-07 0)
(0.00273622 -1.35118e-07 0)
(0.00275498 -1.50621e-07 0)
(0.00277489 -1.6821e-07 0)
(0.00279605 -1.88298e-07 0)
(0.00281862 -2.11405e-07 0)
(0.00284274 -2.38206e-07 0)
(0.00286865 -2.69639e-07 0)
(0.00289661 -3.07023e-07 0)
(0.00292698 -3.52495e-07 0)
(0.0029603 -4.09354e-07 0)
(0.00299734 -4.8404e-07 0)
(0.00303944 -5.8692e-07 0)
(0.00308861 -7.42554e-07 0)
(0.00314931 -9.92733e-07 0)
(0.00322832 -1.46161e-06 0)
(0.00334502 -2.44081e-06 0)
(0.0035389 -5.47536e-06 0)
(0.00400313 -1.9684e-05 0)
(0.00572619 -0.000920647 0)
(0.00576685 0.000289728 0)
(0.00522271 3.67275e-07 0)
(0.0047194 1.75664e-07 0)
(0.00472844 2.96406e-08 0)
(0.00464277 3.92861e-08 0)
(0.00462658 1.47431e-08 0)
(0.00460654 1.1955e-08 0)
(0.00459797 6.50802e-09 0)
(0.00459162 4.47666e-09 0)
(0.00458805 2.78532e-09 0)
(0.00458568 1.87062e-09 0)
(0.00458421 1.23422e-09 0)
(0.00458324 8.39754e-10 0)
(0.00458261 5.74446e-10 0)
(0.00458218 3.99892e-10 0)
(0.0045819 2.81419e-10 0)
(0.0045817 2.00715e-10 0)
(0.00458157 1.4478e-10 0)
(0.00458147 1.056e-10 0)
(0.00458141 7.77465e-11 0)
(0.00458136 5.76325e-11 0)
(0.00458133 4.27833e-11 0)
(0.0045813 3.14474e-11 0)
(0.00458128 2.23061e-11 0)
(0.00458127 1.42726e-11 0)
(0.00458127 6.33598e-12 0)
(0.00458127 -2.57964e-12 0)
(0.00458127 -1.37526e-11 0)
(0.00458128 -2.88056e-11 0)
(0.0045813 -4.98687e-11 0)
(0.00458133 -7.97752e-11 0)
(0.00458138 -1.2229e-10 0)
(0.00458145 -1.82373e-10 0)
(0.00458154 -2.66497e-10 0)
(0.00458168 -3.82995e-10 0)
(0.00458186 -5.42466e-10 0)
(0.00458211 -7.58218e-10 0)
(0.00458245 -1.04674e-09 0)
(0.0045829 -1.42823e-09 0)
(0.00458348 -1.92708e-09 0)
(0.00458424 -2.57246e-09 0)
(0.0045852 -3.39882e-09 0)
(0.00458643 -4.44643e-09 0)
(0.00458797 -5.76187e-09 0)
(0.00458988 -7.39852e-09 0)
(0.00459224 -9.417e-09 0)
(0.00459512 -1.18857e-08 0)
(0.00459862 -1.4881e-08 0)
(0.00460281 -1.84883e-08 0)
(0.00460782 -2.28022e-08 0)
(0.00461375 -2.79276e-08 0)
(0.00462073 -3.39812e-08 0)
(0.00462889 -4.10928e-08 0)
(0.00463837 -4.94085e-08 0)
(0.00464933 -5.90936e-08 0)
(0.00466193 -7.0339e-08 0)
(0.00467635 -8.33677e-08 0)
(0.00469278 -9.8444e-08 0)
(0.00471145 -1.15896e-07 0)
(0.0047326 -1.36106e-07 0)
(0.00475651 -1.59644e-07 0)
(0.00478353 -1.87016e-07 0)
(0.004814 -2.19544e-07 0)
(0.00484287 -2.51477e-07 0)
(0.00486746 -2.79626e-07 0)
(0.00489333 -3.10596e-07 0)
(0.00492076 -3.45488e-07 0)
(0.00494972 -3.83989e-07 0)
(0.00498036 -4.2712e-07 0)
(0.00501278 -4.75451e-07 0)
(0.00504712 -5.30002e-07 0)
(0.00508355 -5.91893e-07 0)
(0.00512229 -6.62582e-07 0)
(0.00516358 -7.43899e-07 0)
(0.00520773 -8.38236e-07 0)
(0.00525515 -9.48901e-07 0)
(0.00530632 -1.08057e-06 0)
(0.00536193 -1.24081e-06 0)
(0.00542294 -1.44133e-06 0)
(0.00549078 -1.70498e-06 0)
(0.00556793 -2.06859e-06 0)
(0.00565812 -2.6193e-06 0)
(0.00576952 -3.50571e-06 0)
(0.00591478 -5.16911e-06 0)
(0.00612956 -8.64946e-06 0)
(0.00648753 -1.92349e-05 0)
(0.00733127 -6.73349e-05 0)
(0.0103614 -0.00167671 0)
(0.00893006 0.000448223 0)
(0.00808928 9.02212e-07 0)
(0.00731063 4.32068e-07 0)
(0.00732435 7.29335e-08 0)
(0.0071918 9.66249e-08 0)
(0.0071667 3.62675e-08 0)
(0.00713569 2.94042e-08 0)
(0.00712242 1.60079e-08 0)
(0.00711258 1.10109e-08 0)
(0.00710706 6.85095e-09 0)
(0.00710339 4.60104e-09 0)
(0.00710111 3.03576e-09 0)
(0.00709961 2.0655e-09 0)
(0.00709863 1.41293e-09 0)
(0.00709797 9.83588e-10 0)
(0.00709753 6.92185e-10 0)
(0.00709723 4.93682e-10 0)
(0.00709702 3.561e-10 0)
(0.00709688 2.59731e-10 0)
(0.00709677 1.91219e-10 0)
(0.0070967 1.41745e-10 0)
(0.00709665 1.05221e-10 0)
(0.00709661 7.73388e-11 0)
(0.00709658 5.4855e-11 0)
(0.00709657 3.50971e-11 0)
(0.00709656 1.55789e-11 0)
(0.00709655 -6.34527e-12 0)
(0.00709656 -3.38187e-11 0)
(0.00709658 -7.08314e-11 0)
(0.00709661 -1.2262e-10 0)
(0.00709666 -1.96152e-10 0)
(0.00709673 -3.00681e-10 0)
(0.00709683 -4.48408e-10 0)
(0.00709698 -6.5524e-10 0)
(0.00709719 -9.41669e-10 0)
(0.00709748 -1.33376e-09 0)
(0.00709787 -1.86422e-09 0)
(0.00709839 -2.5736e-09 0)
(0.00709908 -3.51154e-09 0)
(0.00709998 -4.73804e-09 0)
(0.00710115 -6.32481e-09 0)
(0.00710265 -8.35654e-09 0)
(0.00710455 -1.09323e-08 0)
(0.00710693 -1.41665e-08 0)
(0.00710989 -1.81904e-08 0)
(0.00711354 -2.31531e-08 0)
(0.007118 -2.92227e-08 0)
(0.0071234 -3.65872e-08 0)
(0.00712989 -4.54562e-08 0)
(0.00713764 -5.60624e-08 0)
(0.00714682 -6.86639e-08 0)
(0.00715762 -8.35474e-08 0)
(0.00717025 -1.01032e-07 0)
(0.00718492 -1.21477e-07 0)
(0.00720187 -1.45288e-07 0)
(0.00722136 -1.72936e-07 0)
(0.00724367 -2.04968e-07 0)
(0.0072691 -2.42033e-07 0)
(0.00729799 -2.84939e-07 0)
(0.00733071 -3.34625e-07 0)
(0.00736771 -3.92491e-07 0)
(0.00740951 -4.59783e-07 0)
(0.00745665 -5.39749e-07 0)
(0.00750131 -6.18235e-07 0)
(0.00753935 -6.87455e-07 0)
(0.00757938 -7.63583e-07 0)
(0.00762181 -8.49355e-07 0)
(0.00766662 -9.43999e-07 0)
(0.00771402 -1.05002e-06 0)
(0.00776417 -1.16883e-06 0)
(0.00781729 -1.30293e-06 0)
(0.00787366 -1.45508e-06 0)
(0.00793358 -1.62886e-06 0)
(0.00799746 -1.82879e-06 0)
(0.00806577 -2.06076e-06 0)
(0.00813913 -2.33294e-06 0)
(0.00821831 -2.65689e-06 0)
(0.00830435 -3.05135e-06 0)
(0.0083988 -3.54531e-06 0)
(0.00850384 -4.19532e-06 0)
(0.00862338 -5.09277e-06 0)
(0.00876323 -6.45324e-06 0)
(0.00893615 -8.64609e-06 0)
(0.00916203 -1.27637e-05 0)
(0.00949637 -2.1394e-05 0)
(0.0100551 -4.72248e-05 0)
(0.0113502 -0.000161144 0)
(0.0158247 -0.00258068 0)
(0.0127504 0.000639304 0)
(0.011553 1.86035e-06 0)
(0.0104425 8.91828e-07 0)
(0.0104616 1.50712e-07 0)
(0.0102726 1.9945e-07 0)
(0.0102367 7.48956e-08 0)
(0.0101924 6.07014e-08 0)
(0.0101735 3.30513e-08 0)
(0.0101594 2.2732e-08 0)
(0.0101516 1.41444e-08 0)
(0.0101463 9.49904e-09 0)
(0.0101431 6.26755e-09 0)
(0.0101409 4.26434e-09 0)
(0.0101395 2.9171e-09 0)
(0.0101386 2.03069e-09 0)
(0.0101379 1.42906e-09 0)
(0.0101375 1.01924e-09 0)
(0.0101372 7.35191e-10 0)
(0.010137 5.36228e-10 0)
(0.0101369 3.9478e-10 0)
(0.0101368 2.92637e-10 0)
(0.0101367 2.17231e-10 0)
(0.0101366 1.59668e-10 0)
(0.0101366 1.13251e-10 0)
(0.0101366 7.24649e-11 0)
(0.0101366 3.21766e-11 0)
(0.0101366 -1.30737e-11 0)
(0.0101366 -6.9773e-11 0)
(0.0101366 -1.46155e-10 0)
(0.0101366 -2.53027e-10 0)
(0.0101367 -4.04764e-10 0)
(0.0101368 -6.20466e-10 0)
(0.0101369 -9.25306e-10 0)
(0.0101372 -1.35211e-09 0)
(0.0101375 -1.94317e-09 0)
(0.0101379 -2.75225e-09 0)
(0.0101384 -3.84686e-09 0)
(0.0101392 -5.31069e-09 0)
(0.0101402 -7.24615e-09 0)
(0.0101414 -9.77706e-09 0)
(0.0101431 -1.30514e-08 0)
(0.0101452 -1.72439e-08 0)
(0.010148 -2.25589e-08 0)
(0.0101513 -2.92328e-08 0)
(0.0101556 -3.75362e-08 0)
(0.0101608 -4.77769e-08 0)
(0.0101671 -6.03014e-08 0)
(0.0101748 -7.54981e-08 0)
(0.0101841 -9.37993e-08 0)
(0.0101952 -1.15685e-07 0)
(0.0102083 -1.41688e-07 0)
(0.0102237 -1.724e-07 0)
(0.0102417 -2.08479e-07 0)
(0.0102626 -2.50666e-07 0)
(0.0102868 -2.998e-07 0)
(0.0103146 -3.56849e-07 0)
(0.0103464 -4.22944e-07 0)
(0.0103827 -4.99424e-07 0)
(0.0104239 -5.87954e-07 0)
(0.0104706 -6.90474e-07 0)
(0.0105233 -8.0987e-07 0)
(0.0105829 -9.48712e-07 0)
(0.0106502 -1.1137e-06 0)
(0.0107139 -1.27561e-06 0)
(0.0107681 -1.41845e-06 0)
(0.0108252 -1.57552e-06 0)
(0.0108857 -1.75246e-06 0)
(0.0109496 -1.94773e-06 0)
(0.0110172 -2.16646e-06 0)
(0.0110888 -2.41157e-06 0)
(0.0111645 -2.68824e-06 0)
(0.0112449 -3.00214e-06 0)
(0.0113304 -3.3607e-06 0)
(0.0114215 -3.77325e-06 0)
(0.0115189 -4.252e-06 0)
(0.0116235 -4.81387e-06 0)
(0.0117365 -5.48286e-06 0)
(0.0118592 -6.2979e-06 0)
(0.011994 -7.31937e-06 0)
(0.012144 -8.66471e-06 0)
(0.0123147 -1.05246e-05 0)
(0.0125147 -1.33464e-05 0)
(0.0127623 -1.79022e-05 0)
(0.0130863 -2.64585e-05 0)
(0.0135664 -4.44206e-05 0)
(0.0143705 -9.72383e-05 0)
(0.0161985 -0.000322434 0)
(0.0222341 -0.00365689 0)
(0.0173629 0.000869571 0)
(0.0157374 3.47029e-06 0)
(0.0142271 1.66521e-06 0)
(0.0142524 2.819e-07 0)
(0.0139953 3.72446e-07 0)
(0.0139463 1.39952e-07 0)
(0.0138861 1.13371e-07 0)
(0.0138603 6.17432e-08 0)
(0.0138412 4.24599e-08 0)
(0.0138304 2.64215e-08 0)
(0.0138233 1.77433e-08 0)
(0.0138189 1.17075e-08 0)
(0.0138159 7.96552e-09 0)
(0.013814 5.449e-09 0)
(0.0138128 3.79322e-09 0)
(0.0138119 2.66944e-09 0)
(0.0138113 1.9039e-09 0)
(0.0138109 1.37331e-09 0)
(0.0138106 1.00166e-09 0)
(0.0138104 7.37443e-10 0)
(0.0138103 5.46646e-10 0)
(0.0138102 4.05792e-10 0)
(0.0138101 2.98271e-10 0)
(0.0138101 2.11575e-10 0)
(0.01381 1.354e-10 0)
(0.01381 6.01642e-11 0)
(0.01381 -2.43284e-11 0)
(0.01381 -1.30189e-10 0)
(0.01381 -2.72788e-10 0)
(0.0138101 -4.72303e-10 0)
(0.0138102 -7.55568e-10 0)
(0.0138103 -1.15824e-09 0)
(0.0138105 -1.72731e-09 0)
(0.0138108 -2.52405e-09 0)
(0.0138112 -3.62741e-09 0)
(0.0138118 -5.13778e-09 0)
(0.0138125 -7.18117e-09 0)
(0.0138136 -9.91379e-09 0)
(0.0138149 -1.35268e-08 0)
(0.0138166 -1.82514e-08 0)
(0.0138189 -2.43638e-08 0)
(0.0138218 -3.21902e-08 0)
(0.0138255 -4.21121e-08 0)
(0.0138301 -5.45705e-08 0)
(0.0138359 -7.0071e-08 0)
(0.0138429 -8.91877e-08 0)
(0.0138516 -1.12568e-07 0)
(0.0138621 -1.40936e-07 0)
(0.0138747 -1.751e-07 0)
(0.0138897 -2.15955e-07 0)
(0.0139075 -2.64495e-07 0)
(0.0139285 -3.21825e-07 0)
(0.013953 -3.89174e-07 0)
(0.0139814 -4.67925e-07 0)
(0.0140143 -5.59643e-07 0)
(0.0140521 -6.66134e-07 0)
(0.0140954 -7.89509e-07 0)
(0.0141447 -9.32269e-07 0)
(0.0142008 -1.09752e-06 0)
(0.0142643 -1.28888e-06 0)
(0.014336 -1.51173e-06 0)
(0.0144171 -1.77089e-06 0)
(0.0145086 -2.07882e-06 0)
(0.0145952 -2.38098e-06 0)
(0.014669 -2.64762e-06 0)
(0.0147466 -2.94078e-06 0)
(0.0148289 -3.27099e-06 0)
(0.0149158 -3.63541e-06 0)
(0.0150077 -4.04362e-06 0)
(0.015105 -4.50108e-06 0)
(0.015208 -5.01742e-06 0)
(0.0153173 -5.60328e-06 0)
(0.0154335 -6.27253e-06 0)
(0.0155574 -7.04263e-06 0)
(0.0156899 -7.93646e-06 0)
(0.0158321 -8.98579e-06 0)
(0.0159858 -1.02358e-05 0)
(0.0161527 -1.17595e-05 0)
(0.0163362 -1.36711e-05 0)
(0.0165404 -1.61912e-05 0)
(0.016773 -1.96804e-05 0)
(0.0170459 -2.49785e-05 0)
(0.017384 -3.35482e-05 0)
(0.0178275 -4.96404e-05 0)
(0.0184851 -8.34562e-05 0)
(0.0195878 -0.000180887 0)
(0.0220393 -0.000580346 0)
(0.029715 -0.00493289 0)
(0.0229294 0.00114691 0)
(0.0207907 6.07375e-06 0)
(0.0187995 2.91738e-06 0)
(0.0188317 4.95038e-07 0)
(0.0184925 6.52604e-07 0)
(0.0184278 2.45445e-07 0)
(0.0183483 1.98696e-07 0)
(0.0183142 1.08244e-07 0)
(0.018289 7.4425e-08 0)
(0.0182748 4.63165e-08 0)
(0.0182654 3.11024e-08 0)
(0.0182595 2.05227e-08 0)
(0.0182557 1.39631e-08 0)
(0.0182532 9.55188e-09 0)
(0.0182515 6.64938e-09 0)
(0.0182503 4.67946e-09 0)
(0.0182496 3.33751e-09 0)
(0.018249 2.40742e-09 0)
(0.0182487 1.75593e-09 0)
(0.0182484 1.29276e-09 0)
(0.0182482 9.58305e-10 0)
(0.0182481 7.11398e-10 0)
(0.018248 5.22927e-10 0)
(0.0182479 3.70969e-10 0)
(0.0182479 2.37465e-10 0)
(0.0182478 1.05624e-10 0)
(0.0182478 -4.24166e-11 0)
(0.0182479 -2.27875e-10 0)
(0.0182479 -4.7768e-10 0)
(0.018248 -8.2717e-10 0)
(0.0182481 -1.32335e-09 0)
(0.0182483 -2.02868e-09 0)
(0.0182485 -3.02547e-09 0)
(0.0182489 -4.42106e-09 0)
(0.0182495 -6.35372e-09 0)
(0.0182502 -8.99927e-09 0)
(0.0182512 -1.25785e-08 0)
(0.0182525 -1.73649e-08 0)
(0.0182543 -2.36935e-08 0)
(0.0182566 -3.19691e-08 0)
(0.0182596 -4.26755e-08 0)
(0.0182634 -5.63842e-08 0)
(0.0182683 -7.37633e-08 0)
(0.0182744 -9.55853e-08 0)
(0.018282 -1.22736e-07 0)
(0.0182913 -1.5622e-07 0)
(0.0183027 -1.97173e-07 0)
(0.0183165 -2.46862e-07 0)
(0.0183331 -3.06702e-07 0)
(0.018353 -3.78262e-07 0)
(0.0183764 -4.63284e-07 0)
(0.0184041 -5.637e-07 0)
(0.0184364 -6.81664e-07 0)
(0.0184739 -8.19598e-07 0)
(0.0185173 -9.80243e-07 0)
(0.0185671 -1.16676e-06 0)
(0.0186242 -1.38285e-06 0)
(0.0186893 -1.63289e-06 0)
(0.0187631 -1.9223e-06 0)
(0.0188469 -2.25745e-06 0)
(0.0189415 -2.64774e-06 0)
(0.0190484 -3.1016e-06 0)
(0.019169 -3.64084e-06 0)
(0.0192832 -4.16993e-06 0)
(0.0193804 -4.63695e-06 0)
(0.0194828 -5.15034e-06 0)
(0.0195913 -5.72852e-06 0)
(0.0197059 -6.36667e-06 0)
(0.0198271 -7.08145e-06 0)
(0.0199553 -7.88249e-06 0)
(0.0200911 -8.78663e-06 0)
(0.0202352 -9.81256e-06 0)
(0.0203884 -1.09846e-05 0)
(0.0205517 -1.23334e-05 0)
(0.0207263 -1.38993e-05 0)
(0.0209139 -1.57382e-05 0)
(0.0211164 -1.79298e-05 0)
(0.0213367 -2.06036e-05 0)
(0.0215787 -2.39614e-05 0)
(0.0218483 -2.83931e-05 0)
(0.0221557 -3.45397e-05 0)
(0.0225168 -4.38807e-05 0)
(0.0229647 -5.90201e-05 0)
(0.0235536 -8.74287e-05 0)
(0.0244272 -0.000147123 0)
(0.0258912 -0.000315124 0)
(0.0290627 -0.000973285 0)
(0.0383986 -0.0064387 0)
(0.0296434 0.00148071 0)
(0.0268912 1.0176e-05 0)
(0.024322 4.89325e-06 0)
(0.0243617 8.32793e-07 0)
(0.023924 1.0948e-06 0)
(0.0238401 4.12225e-07 0)
(0.0237374 3.3343e-07 0)
(0.0236933 1.81713e-07 0)
(0.0236607 1.24911e-07 0)
(0.0236424 7.77444e-08 0)
(0.0236303 5.22037e-08 0)
(0.0236227 3.44475e-08 0)
(0.0236177 2.34369e-08 0)
(0.0236145 1.6033e-08 0)
(0.0236123 1.11611e-08 0)
(0.0236108 7.85463e-09 0)
(0.0236098 5.60217e-09 0)
(0.0236091 4.04101e-09 0)
(0.0236087 2.94748e-09 0)
(0.0236083 2.17006e-09 0)
(0.0236081 1.60867e-09 0)
(0.0236079 1.19424e-09 0)
(0.0236078 8.77913e-10 0)
(0.0236077 6.22883e-10 0)
(0.0236076 3.98852e-10 0)
(0.0236076 1.77649e-10 0)
(0.0236076 -7.06956e-11 0)
(0.0236076 -3.81767e-10 0)
(0.0236077 -8.00727e-10 0)
(0.0236078 -1.38684e-09 0)
(0.0236079 -2.21895e-09 0)
(0.0236082 -3.40177e-09 0)
(0.0236085 -5.07335e-09 0)
(0.023609 -7.41369e-09 0)
(0.0236097 -1.06546e-08 0)
(0.0236106 -1.50911e-08 0)
(0.0236119 -2.10932e-08 0)
(0.0236136 -2.91198e-08 0)
(0.0236159 -3.97324e-08 0)
(0.0236189 -5.36101e-08 0)
(0.0236228 -7.1564e-08 0)
(0.0236277 -9.45526e-08 0)
(0.023634 -1.23696e-07 0)
(0.0236418 -1.6029e-07 0)
(0.0236516 -2.05819e-07 0)
(0.0236637 -2.61971e-07 0)
(0.0236784 -3.30644e-07 0)
(0.0236962 -4.13969e-07 0)
(0.0237177 -5.14315e-07 0)
(0.0237433 -6.34314e-07 0)
(0.0237736 -7.76886e-07 0)
(0.0238092 -9.45273e-07 0)
(0.0238509 -1.14308e-06 0)
(0.0238993 -1.37438e-06 0)
(0.0239553 -1.64375e-06 0)
(0.0240197 -1.95651e-06 0)
(0.0240933 -2.31884e-06 0)
(0.0241773 -2.73809e-06 0)
(0.0242726 -3.22337e-06 0)
(0.0243806 -3.7853e-06 0)
(0.0245027 -4.43967e-06 0)
(0.0246407 -5.20063e-06 0)
(0.0247963 -6.10463e-06 0)
(0.0249436 -6.99154e-06 0)
(0.0250691 -7.7746e-06 0)
(0.0252012 -8.63535e-06 0)
(0.0253412 -9.60444e-06 0)
(0.025489 -1.06742e-05 0)
(0.0256454 -1.18724e-05 0)
(0.0258108 -1.32151e-05 0)
(0.025986 -1.47308e-05 0)
(0.0261718 -1.64506e-05 0)
(0.0263694 -1.84155e-05 0)
(0.0265801 -2.06771e-05 0)
(0.0268054 -2.33034e-05 0)
(0.0270474 -2.63888e-05 0)
(0.0273088 -3.00684e-05 0)
(0.0275931 -3.45611e-05 0)
(0.0279056 -4.02105e-05 0)
(0.028254 -4.76762e-05 0)
(0.0286517 -5.80509e-05 0)
(0.0291194 -7.38302e-05 0)
(0.0297005 -9.94575e-05 0)
(0.0304662 -0.000147476 0)
(0.0316015 -0.000248204 0)
(0.0334988 -0.000524145 0)
(0.037487 -0.00154967 0)
(0.0484196 -0.00820555 0)
(0.0377364 0.00188213 0)
(0.0342526 1.652e-05 0)
(0.0309898 7.95403e-06 0)
(0.0310375 1.35873e-06 0)
(0.0304814 1.78004e-06 0)
(0.0303742 6.71186e-07 0)
(0.0302438 5.42328e-07 0)
(0.0301876 2.95697e-07 0)
(0.0301462 2.03208e-07 0)
(0.0301228 1.26494e-07 0)
(0.0301074 8.49318e-08 0)
(0.0300977 5.60464e-08 0)
(0.0300914 3.81314e-08 0)
(0.0300873 2.60859e-08 0)
(0.0300845 1.81593e-08 0)
(0.0300826 1.27798e-08 0)
(0.0300814 9.11506e-09 0)
(0.0300805 6.57506e-09 0)
(0.0300799 4.79588e-09 0)
(0.0300794 3.53101e-09 0)
(0.0300791 2.61764e-09 0)
(0.0300789 1.94339e-09 0)
(0.0300787 1.42875e-09 0)
(0.0300786 1.01388e-09 0)
(0.0300785 6.49493e-10 0)
(0.0300785 2.89772e-10 0)
(0.0300785 -1.14004e-10 0)
(0.0300785 -6.19686e-10 0)
(0.0300786 -1.30068e-09 0)
(0.0300787 -2.25331e-09 0)
(0.0300789 -3.6057e-09 0)
(0.0300792 -5.52805e-09 0)
(0.0300797 -8.24472e-09 0)
(0.0300803 -1.20482e-08 0)
(0.0300812 -1.73154e-08 0)
(0.0300824 -2.45255e-08 0)
(0.030084 -3.428e-08 0)
(0.0300862 -4.73247e-08 0)
(0.0300891 -6.45722e-08 0)
(0.0300929 -8.71259e-08 0)
(0.0300978 -1.16304e-07 0)
(0.0301041 -1.53665e-07 0)
(0.030112 -2.01028e-07 0)
(0.030122 -2.605e-07 0)
(0.0301344 -3.34493e-07 0)
(0.0301497 -4.25748e-07 0)
(0.0301684 -5.37353e-07 0)
(0.0301911 -6.72769e-07 0)
(0.0302183 -8.35846e-07 0)
(0.0302508 -1.03086e-06 0)
(0.0302893 -1.26256e-06 0)
(0.0303346 -1.53621e-06 0)
(0.0303876 -1.85767e-06 0)
(0.0304491 -2.23355e-06 0)
(0.0305202 -2.6713e-06 0)
(0.030602 -3.17954e-06 0)
(0.0306955 -3.76833e-06 0)
(0.0308021 -4.4496e-06 0)
(0.0309233 -5.23813e-06 0)
(0.0310605 -6.15122e-06 0)
(0.0312156 -7.21442e-06 0)
(0.0313908 -8.45086e-06 0)
(0.0315884 -9.91948e-06 0)
(0.0317755 -1.13602e-05 0)
(0.0319349 -1.26326e-05 0)
(0.0321026 -1.40311e-05 0)
(0.0322804 -1.56051e-05 0)
(0.0324681 -1.7343e-05 0)
(0.0326666 -1.92892e-05 0)
(0.0328766 -2.14704e-05 0)
(0.0330991 -2.39323e-05 0)
(0.0333351 -2.67262e-05 0)
(0.033586 -2.99184e-05 0)
(0.0338534 -3.35934e-05 0)
(0.0341395 -3.7862e-05 0)
(0.0344468 -4.28792e-05 0)
(0.0347788 -4.88672e-05 0)
(0.0351399 -5.61855e-05 0)
(0.0355371 -6.54015e-05 0)
(0.0359803 -7.75977e-05 0)
(0.0364868 -9.45827e-05 0)
(0.0370834 -0.000120435 0)
(0.0378257 -0.000162502 0)
(0.0388056 -0.000241128 0)
(0.0402566 -0.000405383 0)
(0.0426664 -0.000841712 0)
(0.0475591 -0.00236774 0)
(0.0599169 -0.0102641 0)
(0.0474839 0.00236439 0)
(0.0431306 2.61924e-05 0)
(0.0390371 1.26303e-05 0)
(0.0390926 2.16735e-06 0)
(0.0383948 2.82739e-06 0)
(0.0382594 1.06795e-06 0)
(0.0380955 8.61822e-07 0)
(0.0380249 4.70168e-07 0)
(0.0379727 3.22997e-07 0)
(0.0379434 2.01097e-07 0)
(0.0379239 1.3501e-07 0)
(0.0379118 8.90978e-08 0)
(0.0379039 6.0617e-08 0)
(0.0378987 4.14693e-08 0)
(0.0378952 2.88684e-08 0)
(0.0378928 2.03168e-08 0)
(0.0378912 1.44909e-08 0)
(0.0378901 1.04531e-08 0)
(0.0378894 7.6247e-09 0)
(0.0378888 5.61394e-09 0)
(0.0378884 4.16196e-09 0)
(0.0378881 3.09013e-09 0)
(0.0378879 2.27208e-09 0)
(0.0378878 1.61268e-09 0)
(0.0378877 1.03362e-09 0)
(0.0378877 4.62103e-10 0)
(0.0378876 -1.79253e-10 0)
(0.0378877 -9.82319e-10 0)
(0.0378878 -2.06365e-09 0)
(0.0378879 -3.5762e-09 0)
(0.0378882 -5.72336e-09 0)
(0.0378885 -8.77539e-09 0)
(0.0378891 -1.30884e-08 0)
(0.0378899 -1.91269e-08 0)
(0.037891 -2.74891e-08 0)
(0.0378925 -3.89358e-08 0)
(0.0378945 -5.44221e-08 0)
(0.0378973 -7.51317e-08 0)
(0.0379009 -1.02514e-07 0)
(0.0379057 -1.3832e-07 0)
(0.0379118 -1.84643e-07 0)
(0.0379197 -2.43956e-07 0)
(0.0379297 -3.19149e-07 0)
(0.0379422 -4.13565e-07 0)
(0.0379578 -5.31035e-07 0)
(0.0379771 -6.75908e-07 0)
(0.0380005 -8.5309e-07 0)
(0.038029 -1.06807e-06 0)
(0.0380632 -1.32696e-06 0)
(0.038104 -1.63656e-06 0)
(0.0381523 -2.00439e-06 0)
(0.0382091 -2.43881e-06 0)
(0.0382756 -2.94913e-06 0)
(0.0383528 -3.54582e-06 0)
(0.038442 -4.24072e-06 0)
(0.0385446 -5.04751e-06 0)
(0.038662 -5.98215e-06 0)
(0.0387958 -7.06356e-06 0)
(0.0389478 -8.31518e-06 0)
(0.03912 -9.76446e-06 0)
(0.0393146 -1.14519e-05 0)
(0.0395345 -1.34143e-05 0)
(0.0397824 -1.57448e-05 0)
(0.0400172 -1.80309e-05 0)
(0.0402171 -2.00504e-05 0)
(0.0404276 -2.22699e-05 0)
(0.0406506 -2.47669e-05 0)
(0.0408861 -2.75245e-05 0)
(0.0411351 -3.06123e-05 0)
(0.0413986 -3.4073e-05 0)
(0.0416776 -3.79791e-05 0)
(0.0419736 -4.24121e-05 0)
(0.0422882 -4.74777e-05 0)
(0.0426237 -5.33104e-05 0)
(0.0429825 -6.00878e-05 0)
(0.0433679 -6.8058e-05 0)
(0.0437844 -7.75784e-05 0)
(0.0442377 -8.92269e-05 0)
(0.0447365 -0.00010392 0)
(0.0452935 -0.000123396 0)
(0.0459309 -0.000150581 0)
(0.0466829 -0.000191979 0)
(0.0476197 -0.000259451 0)
(0.0488584 -0.000385055 0)
(0.0506865 -0.00064552 0)
(0.0536908 -0.00131364 0)
(0.0595524 -0.00349348 0)
(0.0730368 -0.0126417 0)
(0.0592124 0.00294304 0)
(0.0538304 4.07751e-05 0)
(0.0487443 1.96984e-05 0)
(0.0488068 3.39896e-06 0)
(0.0479394 4.4112e-06 0)
(0.04777 1.66973e-06 0)
(0.047566 1.34535e-06 0)
(0.0474779 7.34476e-07 0)
(0.0474129 5.0436e-07 0)
(0.0473764 3.1408e-07 0)
(0.0473521 2.10839e-07 0)
(0.047337 1.39151e-07 0)
(0.0473271 9.46678e-08 0)
(0.0473206 6.4766e-08 0)
(0.0473163 4.50865e-08 0)
(0.0473134 3.17312e-08 0)
(0.0473114 2.26326e-08 0)
(0.04731 1.63265e-08 0)
(0.047309 1.19093e-08 0)
(0.0473084 8.76893e-09 0)
(0.0473079 6.50131e-09 0)
(0.0473075 4.82743e-09 0)
(0.0473073 3.54996e-09 0)
(0.0473071 2.52037e-09 0)
(0.047307 1.6164e-09 0)
(0.0473069 7.24456e-10 0)
(0.0473069 -2.76206e-10 0)
(0.0473069 -1.52889e-09 0)
(0.0473071 -3.21536e-09 0)
(0.0473073 -5.57415e-09 0)
(0.0473076 -8.92245e-09 0)
(0.047308 -1.36816e-08 0)
(0.0473087 -2.04071e-08 0)
(0.0473097 -2.9823e-08 0)
(0.0473111 -4.28622e-08 0)
(0.0473129 -6.0711e-08 0)
(0.0473155 -8.48587e-08 0)
(0.0473189 -1.17151e-07 0)
(0.0473234 -1.59847e-07 0)
(0.0473293 -2.15679e-07 0)
(0.047337 -2.8791e-07 0)
(0.0473468 -3.80396e-07 0)
(0.0473592 -4.97644e-07 0)
(0.0473748 -6.44865e-07 0)
(0.0473942 -8.28032e-07 0)
(0.0474181 -1.05393e-06 0)
(0.0474472 -1.3302e-06 0)
(0.0474826 -1.66541e-06 0)
(0.0475251 -2.06909e-06 0)
(0.0475758 -2.55182e-06 0)
(0.0476359 -3.12534e-06 0)
(0.0477065 -3.80269e-06 0)
(0.0477892 -4.59837e-06 0)
(0.0478851 -5.5287e-06 0)
(0.0479961 -6.61214e-06 0)
(0.0481236 -7.86999e-06 0)
(0.0482695 -9.32712e-06 0)
(0.0484358 -1.1013e-05 0)
(0.0486248 -1.29642e-05 0)
(0.0488388 -1.52234e-05 0)
(0.0490806 -1.78537e-05 0)
(0.0493539 -2.09126e-05 0)
(0.049662 -2.45444e-05 0)
(0.0499537 -2.81068e-05 0)
(0.0502021 -3.12546e-05 0)
(0.0504637 -3.47141e-05 0)
(0.0507407 -3.86041e-05 0)
(0.0510332 -4.29011e-05 0)
(0.0513426 -4.77118e-05 0)
(0.0516699 -5.31039e-05 0)
(0.0520164 -5.91898e-05 0)
(0.052384 -6.60969e-05 0)
(0.0527749 -7.39906e-05 0)
(0.0531915 -8.30818e-05 0)
(0.0536371 -9.36494e-05 0)
(0.0541159 -0.000106085 0)
(0.0546333 -0.000120953 0)
(0.0551967 -0.000139168 0)
(0.055817 -0.000162187 0)
(0.0565105 -0.000192748 0)
(0.0573048 -0.000235508 0)
(0.0582437 -0.000300634 0)
(0.0594143 -0.000406867 0)
(0.0609628 -0.000603437 0)
(0.0632355 -0.00100636 0)
(0.0669105 -0.0019998 0)