/*--------------------------------*- C++ -*----------------------------------*\
| =========                 |                                                 |
| \\      /  F ield         | OpenFOAM: The Open Source CFD Toolbox           |
|  \\    /   O peration     | Version:  2506                                  |
|   \\  /    A nd           | Website:  www.openfoam.com                      |
|    \\/     M anipulation  |                                                 |
\*---------------------------------------------------------------------------*/
FoamFile
{
    version     2.0;
    format      ascii;
    arch        "LSB;label=32;scalar=64";
    class       volVectorField;
    location    "1000";
    object      U;
}
// * * * * * * * * * * * * * * * * * * * * * * * * * * * * * * * * * * * * * //

dimensions      [0 1 -1 0 0 0 0];

internalField   nonuniform List<vector> 
20540
(
(0.876064 -1.24175e-06 0)
(1.06166 0.000114719 0)
(0.875887 -4.15842e-06 0)
(1.06369 0.000366156 0)
(0.875653 -7.99828e-06 0)
(1.0663 0.000666791 0)
(0.875346 -1.31288e-05 0)
(1.06959 0.0010253 0)
(0.87495 -2.00633e-05 0)
(1.07368 0.00145167 0)
(0.874444 -2.95324e-05 0)
(1.07868 0.00195697 0)
(0.873803 -4.25695e-05 0)
(1.08468 0.00255322 0)
(0.873003 -6.06187e-05 0)
(1.09177 0.00325299 0)
(0.872015 -8.56728e-05 0)
(1.09998 0.00406886 0)
(0.870815 -0.000120441 0)
(1.10929 0.00501228 0)
(0.869386 -0.00016853 0)
(1.11958 0.00609204 0)
(0.867735 -0.000234619 0)
(1.13056 0.00731188 0)
(0.865912 -0.000324545 0)
(1.14173 0.00866732 0)
(0.864049 -0.000445204 0)
(1.15231 0.0101414 0)
(0.862408 -0.000604068 0)
(1.16112 0.0116993 0)
(0.861459 -0.000808019 0)
(1.16661 0.0132829 0)
(0.861948 -0.00106115 0)
(1.16682 0.0148054 0)
(0.864952 -0.00136112 0)
(1.15959 0.0161494 0)
(0.871821 -0.00169397 0)
(1.14301 0.0171721 0)
(0.883902 -0.00202822 0)
(1.11625 0.0177255 0)
(0.901941 -0.00231138 0)
(1.08077 0.017696 0)
(0.925224 -0.00247639 0)
(1.04152 0.0170656 0)
(0.950908 -0.00246709 0)
(1.00688 0.0159688 0)
(0.974319 -0.00228104 0)
(0.985724 0.0146831 0)
(0.990817 -0.00199667 0)
(0.981549 0.013485 0)
(0.998632 -0.00173098 0)
(0.988457 0.0124238 0)
(1.00026 -0.00153642 0)
(0.995932 0.011274 0)
(0.999958 -0.00136496 0)
(0.998994 0.00979149 0)
(0.999864 -0.00114915 0)
(0.999631 0.00790049 0)
(0.99996 -0.000861177 0)
(1.00006 0.00561988 0)
(1.00002 -0.000569961 0)
(1.00045 0.00320677 0)
(1.00004 -0.000323381 0)
(1.00067 0.000868298 0)
(1.00004 -8.81149e-05 0)
(1.0007 -0.00144971 0)
(1.00002 0.000159462 0)
(1.00055 -0.0037857 0)
(0.999967 0.000440132 0)
(1.00024 -0.00616028 0)
(0.999883 0.000707677 0)
(0.999876 -0.00837822 0)
(0.99996 0.000909099 0)
(0.9993 -0.0102264 0)
(1.00018 0.00107035 0)
(0.996644 -0.0116916 0)
(0.99875 0.00124847 0)
(0.990181 -0.0128377 0)
(0.992103 0.00148647 0)
(0.98378 -0.0138688 0)
(0.977972 0.00174608 0)
(0.986222 -0.0149889 0)
(0.957605 0.00192951 0)
(1.00313 -0.0161825 0)
(0.934825 0.00196345 0)
(1.03232 -0.0172256 0)
(0.913696 0.00184157 0)
(1.06642 -0.0178664 0)
(0.896851 0.0016081 0)
(1.09782 -0.0179625 0)
(0.885104 0.00132199 0)
(1.12161 -0.0175073 0)
(0.877942 0.00103244 0)
(1.136 -0.0165888 0)
(0.874252 0.000770588 0)
(1.14146 -0.0153371 0)
(0.872864 0.000551245 0)
(1.13962 -0.013885 0)
(0.872823 0.000377733 0)
(1.13248 -0.0123466 0)
(0.873457 0.000246703 0)
(1.12193 -0.0108097 0)
(0.874347 0.00015171 0)
(1.10954 -0.0093358 0)
(0.875257 8.54806e-05 0)
(1.09651 -0.00796382 0)
(0.876072 4.11775e-05 0)
(1.08366 -0.00671511 0)
(0.876751 1.29649e-05 0)
(1.07156 -0.00559808 0)
(0.877288 -3.83481e-06 0)
(1.0605 -0.00461231 0)
(0.8777 -1.28048e-05 0)
(1.05066 -0.00375169 0)
(0.878006 -1.65937e-05 0)
(1.04207 -0.00300678 0)
(0.878229 -1.71004e-05 0)
(1.03471 -0.00236649 0)
(0.878388 -1.56483e-05 0)
(1.0285 -0.00181924 0)
(0.8785 -1.3134e-05 0)
(1.02334 -0.00135366 0)
(0.878576 -1.01458e-05 0)
(1.01911 -0.000959056 0)
(0.878627 -7.0522e-06 0)
(1.0157 -0.000625625 0)
(0.878661 -4.06909e-06 0)
(1.01301 -0.000344553 0)
(0.878683 -1.32592e-06 0)
(1.01091 -0.00010817 0)
(0.00521172 0.00012448 0)
(0.00285585 1.11511e-07 0)
(0.00225193 3.35908e-08 0)
(0.0019721 1.66095e-08 0)
(0.00182916 9.97431e-09 0)
(0.00172798 7.85432e-09 0)
(0.00164445 6.60969e-09 0)
(0.00157807 5.4609e-09 0)
(0.00152501 4.61523e-09 0)
(0.00148081 4.03081e-09 0)
(0.00144316 3.57775e-09 0)
(0.00141079 3.20772e-09 0)
(0.00138267 2.90695e-09 0)
(0.00135797 2.66012e-09 0)
(0.00133609 2.45333e-09 0)
(0.00131657 2.27773e-09 0)
(0.00129905 2.12721e-09 0)
(0.00128324 1.99707e-09 0)
(0.00126889 1.88355e-09 0)
(0.00125583 1.78382e-09 0)
(0.00124389 1.69557e-09 0)
(0.00123292 1.61703e-09 0)
(0.00122284 1.54667e-09 0)
(0.00121352 1.48327e-09 0)
(0.00120491 1.42578e-09 0)
(0.00119692 1.37328e-09 0)
(0.0011895 1.32495e-09 0)
(0.0011826 1.28006e-09 0)
(0.00117617 1.23792e-09 0)
(0.00117018 1.19786e-09 0)
(0.00116459 1.15922e-09 0)
(0.00115937 1.12135e-09 0)
(0.00115452 1.08358e-09 0)
(0.00115 1.04516e-09 0)
(0.0011458 1.00535e-09 0)
(0.00114191 9.63293e-10 0)
(0.00113833 9.18131e-10 0)
(0.00113505 8.68845e-10 0)
(0.00113207 8.14471e-10 0)
(0.00112939 7.53852e-10 0)
(0.00112702 6.85909e-10 0)
(0.00112495 6.09363e-10 0)
(0.00112321 5.23016e-10 0)
(0.00112179 4.25477e-10 0)
(0.00112071 3.15422e-10 0)
(0.00111999 1.91354e-10 0)
(0.00111963 5.1833e-11 0)
(0.00111966 -1.04715e-10 0)
(0.00112008 -2.79754e-10 0)
(0.00112092 -4.74842e-10 0)
(0.0011222 -6.91374e-10 0)
(0.00112392 -9.31075e-10 0)
(0.00112612 -1.19543e-09 0)
(0.00112879 -1.48771e-09 0)
(0.00113198 -1.81021e-09 0)
(0.00113568 -2.16722e-09 0)
(0.00113992 -2.56383e-09 0)
(0.00114473 -3.00026e-09 0)
(0.00115012 -3.48533e-09 0)
(0.00115611 -4.01609e-09 0)
(0.00116276 -4.60432e-09 0)
(0.00117003 -5.24868e-09 0)
(0.00117806 -6.0111e-09 0)
(0.00118545 -6.70309e-09 0)
(0.00119158 -7.22107e-09 0)
(0.00119782 -7.7894e-09 0)
(0.00120426 -8.43174e-09 0)
(0.00121088 -9.09948e-09 0)
(0.00121767 -9.81249e-09 0)
(0.00122462 -1.05753e-08 0)
(0.00123176 -1.13938e-08 0)
(0.00123906 -1.22838e-08 0)
(0.00124656 -1.32499e-08 0)
(0.00125423 -1.43224e-08 0)
(0.00126216 -1.55085e-08 0)
(0.00127026 -1.68658e-08 0)
(0.00127876 -1.83971e-08 0)
(0.00128741 -2.02487e-08 0)
(0.00129679 -2.23477e-08 0)
(0.00130616 -2.52419e-08 0)
(0.00131722 -2.82992e-08 0)
(0.00132737 -3.41075e-08 0)
(0.00134261 -3.87082e-08 0)
(0.00135261 -5.56355e-08 0)
(0.00138183 -6.34353e-08 0)
(0.00138563 -1.67923e-07 0)
(0.00149438 -3.86185e-07 0)
(0.0015411 -0.000176418 0)
(0.0166331 0.000398623 0)
(0.00915632 1.70811e-06 0)
(0.00722371 5.30881e-07 0)
(0.00632637 2.63841e-07 0)
(0.00586748 1.58668e-07 0)
(0.00554288 1.2481e-07 0)
(0.00527505 1.05071e-07 0)
(0.00506216 8.6886e-08 0)
(0.00489197 7.3463e-08 0)
(0.0047502 6.41735e-08 0)
(0.00462947 5.69754e-08 0)
(0.00452566 5.10957e-08 0)
(0.00443546 4.63146e-08 0)
(0.00435624 4.23896e-08 0)
(0.00428607 3.9101e-08 0)
(0.00422347 3.63077e-08 0)
(0.00416728 3.39133e-08 0)
(0.00411657 3.18425e-08 0)
(0.00407057 3.0036e-08 0)
(0.00402868 2.84482e-08 0)
(0.00399037 2.70431e-08 0)
(0.00395521 2.57917e-08 0)
(0.00392286 2.46703e-08 0)
(0.003893 2.36593e-08 0)
(0.00386537 2.27419e-08 0)
(0.00383975 2.19039e-08 0)
(0.00381596 2.11325e-08 0)
(0.00379382 2.04161e-08 0)
(0.0037732 1.97441e-08 0)
(0.00375397 1.91059e-08 0)
(0.00373605 1.84912e-08 0)
(0.00371933 1.78896e-08 0)
(0.00370375 1.72901e-08 0)
(0.00368925 1.66813e-08 0)
(0.00367578 1.60511e-08 0)
(0.00366332 1.53865e-08 0)
(0.00365183 1.46733e-08 0)
(0.00364131 1.38965e-08 0)
(0.00363174 1.30399e-08 0)
(0.00362314 1.20861e-08 0)
(0.00361551 1.10168e-08 0)
(0.00360888 9.81216e-09 0)
(0.00360327 8.45169e-09 0)
(0.00359871 6.91367e-09 0)
(0.00359524 5.17565e-09 0)
(0.0035929 3.21395e-09 0)
(0.00359173 1.00476e-09 0)
(0.0035918 -1.47777e-09 0)
(0.00359314 -4.25845e-09 0)
(0.00359581 -7.36599e-09 0)
(0.00359986 -1.08252e-08 0)
(0.00360535 -1.46698e-08 0)
(0.00361235 -1.89233e-08 0)
(0.00362088 -2.36294e-08 0)
(0.00363104 -2.88076e-08 0)
(0.00364285 -3.45227e-08 0)
(0.00365641 -4.0777e-08 0)
(0.00367173 -4.76866e-08 0)
(0.00368897 -5.52226e-08 0)
(0.00370808 -6.35927e-08 0)
(0.0037293 -7.27517e-08 0)
(0.00375255 -8.2981e-08 0)
(0.00377819 -9.49264e-08 0)
(0.00380177 -1.05849e-07 0)
(0.00382136 -1.14179e-07 0)
(0.00384127 -1.23161e-07 0)
(0.00386186 -1.33331e-07 0)
(0.00388298 -1.43902e-07 0)
(0.00390467 -1.55159e-07 0)
(0.00392688 -1.67205e-07 0)
(0.00394966 -1.80093e-07 0)
(0.00397296 -1.94133e-07 0)
(0.0039969 -2.09264e-07 0)
(0.00402138 -2.26197e-07 0)
(0.00404669 -2.44554e-07 0)
(0.00407256 -2.66134e-07 0)
(0.00409967 -2.89337e-07 0)
(0.00412729 -3.19519e-07 0)
(0.00415721 -3.49965e-07 0)
(0.00418711 -3.99753e-07 0)
(0.00422234 -4.38909e-07 0)
(0.00425477 -5.47291e-07 0)
(0.00430314 -5.82542e-07 0)
(0.00433533 -9.25924e-07 0)
(0.00442759 -8.72079e-07 0)
(0.00444151 -2.87036e-06 0)
(0.00477659 -4.61468e-06 0)
(0.00491139 -0.000550208 0)
(0.0303133 0.000729 0)
(0.0167638 5.96889e-06 0)
(0.013232 1.86782e-06 0)
(0.0115888 9.29769e-07 0)
(0.0107476 5.59265e-07 0)
(0.0101529 4.39613e-07 0)
(0.00966246 3.70027e-07 0)
(0.00927259 3.0602e-07 0)
(0.00896088 2.58742e-07 0)
(0.00870125 2.26011e-07 0)
(0.00848014 2.00655e-07 0)
(0.00829003 1.79947e-07 0)
(0.00812484 1.63107e-07 0)
(0.00797976 1.49282e-07 0)
(0.00785124 1.377e-07 0)
(0.0077366 1.27862e-07 0)
(0.00763371 1.19428e-07 0)
(0.00754083 1.12135e-07 0)
(0.0074566 1.05773e-07 0)
(0.00737987 1.00181e-07 0)
(0.00730971 9.52321e-08 0)
(0.00724534 9.08252e-08 0)
(0.00718608 8.68762e-08 0)
(0.00713139 8.33159e-08 0)
(0.0070808 8.00857e-08 0)
(0.00703388 7.7135e-08 0)
(0.0069903 7.4419e-08 0)
(0.00694976 7.18972e-08 0)
(0.00691199 6.95312e-08 0)
(0.00687679 6.72847e-08 0)
(0.00684395 6.51211e-08 0)
(0.00681333 6.30037e-08 0)
(0.0067848 6.08941e-08 0)
(0.00675824 5.87522e-08 0)
(0.00673358 5.65353e-08 0)
(0.00671075 5.41974e-08 0)
(0.00668971 5.16893e-08 0)
(0.00667042 4.89581e-08 0)
(0.0066529 4.59466e-08 0)
(0.00663713 4.25941e-08 0)
(0.00662314 3.88358e-08 0)
(0.00661098 3.46028e-08 0)
(0.00660068 2.98229e-08 0)
(0.0065923 2.44201e-08 0)
(0.00658591 1.83158e-08 0)
(0.00658159 1.14269e-08 0)
(0.00657942 3.67006e-09 0)
(0.00657949 -5.04523e-09 0)
(0.0065819 -1.48056e-08 0)
(0.00658673 -2.57112e-08 0)
(0.00659409 -3.78481e-08 0)
(0.00660407 -5.13334e-08 0)
(0.0066168 -6.62488e-08 0)
(0.00663234 -8.275e-08 0)
(0.00665084 -1.00907e-07 0)
(0.00667236 -1.20949e-07 0)
(0.00669708 -1.42899e-07 0)
(0.00672502 -1.67145e-07 0)
(0.00675644 -1.9361e-07 0)
(0.00679129 -2.22989e-07 0)
(0.00683 -2.55137e-07 0)
(0.00687238 -2.91034e-07 0)
(0.00691914 -3.32906e-07 0)
(0.00696214 -3.71186e-07 0)
(0.00699786 -4.00475e-07 0)
(0.00703418 -4.31926e-07 0)
(0.00707172 -4.67571e-07 0)
(0.00711023 -5.04623e-07 0)
(0.00714978 -5.4407e-07 0)
(0.00719027 -5.86296e-07 0)
(0.00723181 -6.31432e-07 0)
(0.00727429 -6.80649e-07 0)
(0.00731794 -7.33609e-07 0)
(0.00736256 -7.92977e-07 0)
(0.00740869 -8.57173e-07 0)
(0.00745583 -9.32868e-07 0)
(0.00750523 -1.01387e-06 0)
(0.00755556 -1.11982e-06 0)
(0.00761003 -1.22572e-06 0)
(0.00766452 -1.40076e-06 0)
(0.00772859 -1.53571e-06 0)
(0.00778775 -1.91769e-06 0)
(0.00787546 -2.03393e-06 0)
(0.00793456 -3.24621e-06 0)
(0.0081009 -3.03341e-06 0)
(0.00812933 -9.94374e-06 0)
(0.00872189 -1.52422e-05 0)
(0.00894781 -0.000978688 0)
(0.0466671 0.00112672 0)
(0.0259466 1.45712e-05 0)
(0.0204913 4.58892e-06 0)
(0.0179476 2.28763e-06 0)
(0.0166436 1.37649e-06 0)
(0.0157225 1.0814e-06 0)
(0.0149633 9.10085e-07 0)
(0.0143597 7.52741e-07 0)
(0.0138771 6.36464e-07 0)
(0.0134751 5.55931e-07 0)
(0.0131328 4.93558e-07 0)
(0.0128384 4.42622e-07 0)
(0.0125827 4.012e-07 0)
(0.012358 3.67193e-07 0)
(0.0121591 3.38703e-07 0)
(0.0119816 3.14504e-07 0)
(0.0118222 2.9376e-07 0)
(0.0116785 2.7582e-07 0)
(0.011548 2.6017e-07 0)
(0.0114293 2.46416e-07 0)
(0.0113206 2.34244e-07 0)
(0.011221 2.23404e-07 0)
(0.0111292 2.1369e-07 0)
(0.0110446 2.04933e-07 0)
(0.0109662 1.96988e-07 0)
(0.0108936 1.89731e-07 0)
(0.0108261 1.83051e-07 0)
(0.0107633 1.76849e-07 0)
(0.0107049 1.71031e-07 0)
(0.0106504 1.65507e-07 0)
(0.0105995 1.60187e-07 0)
(0.0105521 1.54982e-07 0)
(0.0105079 1.49797e-07 0)
(0.0104668 1.44534e-07 0)
(0.0104286 1.39087e-07 0)
(0.0103932 1.33344e-07 0)
(0.0103607 1.27184e-07 0)
(0.0103308 1.20478e-07 0)
(0.0103036 1.13085e-07 0)
(0.0102792 1.04856e-07 0)
(0.0102575 9.56318e-08 0)
(0.0102386 8.52438e-08 0)
(0.0102227 7.35152e-08 0)
(0.0102096 6.02589e-08 0)
(0.0101997 4.52827e-08 0)
(0.0101929 2.83825e-08 0)
(0.0101895 9.35416e-09 0)
(0.0101895 -1.20245e-08 0)
(0.0101932 -3.59657e-08 0)
(0.0102005 -6.2715e-08 0)
(0.0102118 -9.24833e-08 0)
(0.0102271 -1.25558e-07 0)
(0.0102467 -1.62138e-07 0)
(0.0102706 -2.02606e-07 0)
(0.0102991 -2.47132e-07 0)
(0.0103322 -2.96281e-07 0)
(0.0103703 -3.50103e-07 0)
(0.0104133 -4.09555e-07 0)
(0.0104617 -4.74443e-07 0)
(0.0105153 -5.46478e-07 0)
(0.010575 -6.25282e-07 0)
(0.0106403 -7.13286e-07 0)
(0.0107123 -8.1585e-07 0)
(0.0107785 -9.09644e-07 0)
(0.0108335 -9.81545e-07 0)
(0.0108895 -1.05858e-06 0)
(0.0109473 -1.14589e-06 0)
(0.0110066 -1.23666e-06 0)
(0.0110676 -1.33327e-06 0)
(0.0111299 -1.4367e-06 0)
(0.0111939 -1.54721e-06 0)
(0.0112593 -1.66773e-06 0)
(0.0113265 -1.79734e-06 0)
(0.0113952 -1.94268e-06 0)
(0.0114662 -2.0997e-06 0)
(0.0115388 -2.28496e-06 0)
(0.0116148 -2.48292e-06 0)
(0.0116923 -2.74217e-06 0)
(0.011776 -3.00064e-06 0)
(0.0118599 -3.42877e-06 0)
(0.0119583 -3.75762e-06 0)
(0.0120494 -4.69095e-06 0)
(0.0121836 -4.97381e-06 0)
(0.0122754 -7.93001e-06 0)
(0.0125282 -7.42558e-06 0)
(0.0125771 -2.39914e-05 0)
(0.0134585 -3.56738e-05 0)
(0.0137737 -0.0014625 0)
(0.0661695 0.00160512 0)
(0.0370262 2.9832e-05 0)
(0.0292602 9.46165e-06 0)
(0.0256295 4.72436e-06 0)
(0.0237653 2.84388e-06 0)
(0.0224497 2.23287e-06 0)
(0.0213662 1.87877e-06 0)
(0.0205045 1.55413e-06 0)
(0.0198155 1.3141e-06 0)
(0.0192416 1.14778e-06 0)
(0.0187529 1.01899e-06 0)
(0.0183327 9.13829e-07 0)
(0.0179676 8.28309e-07 0)
(0.0176469 7.58097e-07 0)
(0.0173629 6.99274e-07 0)
(0.0171095 6.49312e-07 0)
(0.0168821 6.06485e-07 0)
(0.0166768 5.69446e-07 0)
(0.0164907 5.37136e-07 0)
(0.0163211 5.08738e-07 0)
(0.016166 4.83608e-07 0)
(0.0160238 4.61228e-07 0)
(0.0158928 4.41175e-07 0)
(0.0157719 4.23096e-07 0)
(0.0156601 4.06694e-07 0)
(0.0155564 3.91712e-07 0)
(0.0154601 3.77922e-07 0)
(0.0153705 3.6512e-07 0)
(0.015287 3.53111e-07 0)
(0.0152092 3.4171e-07 0)
(0.0151366 3.30733e-07 0)
(0.015069 3.19994e-07 0)
(0.0150059 3.09298e-07 0)
(0.0149472 2.98443e-07 0)
(0.0148926 2.87212e-07 0)
(0.0148421 2.75374e-07 0)
(0.0147956 2.6268e-07 0)
(0.0147529 2.48862e-07 0)
(0.0147141 2.33632e-07 0)
(0.0146792 2.16683e-07 0)
(0.0146482 1.97687e-07 0)
(0.0146212 1.76297e-07 0)
(0.0145983 1.5215e-07 0)
(0.0145796 1.24859e-07 0)
(0.0145654 9.40305e-08 0)
(0.0145556 5.92435e-08 0)
(0.0145506 2.00783e-08 0)
(0.0145505 -2.39223e-08 0)
(0.0145555 -7.31948e-08 0)
(0.0145659 -1.28244e-07 0)
(0.0145818 -1.89504e-07 0)
(0.0146034 -2.57566e-07 0)
(0.0146311 -3.32838e-07 0)
(0.0146649 -4.16107e-07 0)
(0.0147053 -5.07723e-07 0)
(0.0147522 -6.08844e-07 0)
(0.0148062 -7.19574e-07 0)
(0.0148672 -8.41881e-07 0)
(0.0149358 -9.75359e-07 0)
(0.015012 -1.12353e-06 0)
(0.0150965 -1.2856e-06 0)
(0.0151892 -1.46659e-06 0)
(0.0152914 -1.67736e-06 0)
(0.0153853 -1.87018e-06 0)
(0.0154634 -2.01823e-06 0)
(0.0155428 -2.17656e-06 0)
(0.0156248 -2.35593e-06 0)
(0.015709 -2.54247e-06 0)
(0.0157954 -2.74099e-06 0)
(0.0158839 -2.95346e-06 0)
(0.0159746 -3.18047e-06 0)
(0.0160674 -3.42798e-06 0)
(0.0161627 -3.69411e-06 0)
(0.0162601 -3.99246e-06 0)
(0.0163608 -4.31471e-06 0)
(0.0164636 -4.69478e-06 0)
(0.0165714 -5.10087e-06 0)
(0.0166811 -5.63221e-06 0)
(0.0167997 -6.16245e-06 0)
(0.0169186 -7.03822e-06 0)
(0.0170576 -7.71462e-06 0)
(0.0171869 -9.61722e-06 0)
(0.0173759 -1.02139e-05 0)
(0.0175071 -1.6212e-05 0)
(0.0178601 -1.53072e-05 0)
(0.0179373 -4.82989e-05 0)
(0.019137 -7.01433e-05 0)
(0.0195326 -0.00200067 0)
(0.0893579 0.00217993 0)
(0.0503878 5.51791e-05 0)
(0.039849 1.76463e-05 0)
(0.034907 8.82759e-06 0)
(0.0323645 5.31658e-06 0)
(0.0305724 4.17139e-06 0)
(0.0290976 3.50901e-06 0)
(0.0279246 2.90306e-06 0)
(0.0269863 2.45478e-06 0)
(0.026205 2.14399e-06 0)
(0.0255396 1.90339e-06 0)
(0.0249676 1.70696e-06 0)
(0.0244705 1.54721e-06 0)
(0.024034 1.41605e-06 0)
(0.0236473 1.30617e-06 0)
(0.0233023 1.21285e-06 0)
(0.0229927 1.13285e-06 0)
(0.0227133 1.06366e-06 0)
(0.0224598 1.00331e-06 0)
(0.022229 9.50263e-07 0)
(0.0220179 9.03322e-07 0)
(0.0218242 8.61519e-07 0)
(0.0216459 8.24062e-07 0)
(0.0214813 7.90293e-07 0)
(0.0213291 7.59657e-07 0)
(0.0211879 7.31675e-07 0)
(0.0210568 7.05921e-07 0)
(0.0209348 6.82013e-07 0)
(0.0208212 6.59588e-07 0)
(0.0207152 6.38302e-07 0)
(0.0206164 6.1781e-07 0)
(0.0205243 5.97766e-07 0)
(0.0204384 5.77808e-07 0)
(0.0203584 5.57557e-07 0)
(0.0202842 5.36612e-07 0)
(0.0202154 5.14541e-07 0)
(0.020152 4.90879e-07 0)
(0.0200938 4.65129e-07 0)
(0.020041 4.36755e-07 0)
(0.0199933 4.05185e-07 0)
(0.0199511 3.69809e-07 0)
(0.0199142 3.29981e-07 0)
(0.0198829 2.85024e-07 0)
(0.0198574 2.34221e-07 0)
(0.0198378 1.76837e-07 0)
(0.0198244 1.1209e-07 0)
(0.0198173 3.91989e-08 0)
(0.0198169 -4.26865e-08 0)
(0.0198235 -1.34378e-07 0)
(0.0198373 -2.36815e-07 0)
(0.0198586 -3.50804e-07 0)
(0.0198877 -4.77442e-07 0)
(0.019925 -6.1749e-07 0)
(0.0199706 -7.7241e-07 0)
(0.020025 -9.42848e-07 0)
(0.0200884 -1.13096e-06 0)
(0.0201612 -1.33693e-06 0)
(0.0202436 -1.56442e-06 0)
(0.0203364 -1.81267e-06 0)
(0.0204392 -2.08822e-06 0)
(0.0205535 -2.38959e-06 0)
(0.0206787 -2.72608e-06 0)
(0.0208168 -3.11762e-06 0)
(0.0209437 -3.476e-06 0)
(0.0210492 -3.75159e-06 0)
(0.0211565 -4.04579e-06 0)
(0.0212674 -4.37889e-06 0)
(0.0213811 -4.72543e-06 0)
(0.0214979 -5.09414e-06 0)
(0.0216174 -5.4887e-06 0)
(0.0217399 -5.91018e-06 0)
(0.0218652 -6.36957e-06 0)
(0.021994 -6.8635e-06 0)
(0.0221255 -7.41689e-06 0)
(0.0222614 -8.01473e-06 0)
(0.0224003 -8.71904e-06 0)
(0.0225456 -9.47228e-06 0)
(0.0226937 -1.04553e-05 0)
(0.0228536 -1.14396e-05 0)
(0.0230139 -1.30548e-05 0)
(0.0232009 -1.43175e-05 0)
(0.0233756 -1.78073e-05 0)
(0.0236286 -1.89696e-05 0)
(0.0238074 -2.98933e-05 0)
(0.0242752 -2.85883e-05 0)
(0.0243908 -8.73793e-05 0)
(0.0259335 -0.000124293 0)
(0.0263921 -0.00258794 0)
(0.116829 0.00286957 0)
(0.0664912 9.55983e-05 0)
(0.0526303 3.08764e-05 0)
(0.0461072 1.54797e-05 0)
(0.0427436 9.32879e-06 0)
(0.0403759 7.31332e-06 0)
(0.0384295 6.1502e-06 0)
(0.0368809 5.08895e-06 0)
(0.035642 4.30333e-06 0)
(0.0346104 3.7583e-06 0)
(0.033732 3.33645e-06 0)
(0.0329768 2.99215e-06 0)
(0.0323206 2.71212e-06 0)
(0.0317442 2.48219e-06 0)
(0.0312337 2.28957e-06 0)
(0.0307783 2.12598e-06 0)
(0.0303696 1.98574e-06 0)
(0.0300006 1.86446e-06 0)
(0.029666 1.75867e-06 0)
(0.0293613 1.66568e-06 0)
(0.0290826 1.5834e-06 0)
(0.0288269 1.51013e-06 0)
(0.0285915 1.44447e-06 0)
(0.0283743 1.38528e-06 0)
(0.0281733 1.33158e-06 0)
(0.0279869 1.28254e-06 0)
(0.0278138 1.2374e-06 0)
(0.0276528 1.1955e-06 0)
(0.0275027 1.15621e-06 0)
(0.0273629 1.11892e-06 0)
(0.0272324 1.08302e-06 0)
(0.0271107 1.04792e-06 0)
(0.0269973 1.01298e-06 0)
(0.0268917 9.77536e-07 0)
(0.0267937 9.40889e-07 0)
(0.0267028 9.02286e-07 0)
(0.026619 8.60915e-07 0)
(0.0265422 8.15906e-07 0)
(0.0264723 7.66326e-07 0)
(0.0264094 7.11174e-07 0)
(0.0263534 6.49388e-07 0)
(0.0263046 5.79839e-07 0)
(0.0262631 5.01346e-07 0)
(0.0262292 4.12658e-07 0)
(0.0262031 3.12491e-07 0)
(0.0261851 1.99483e-07 0)
(0.0261754 7.22719e-08 0)
(0.0261746 -7.06266e-08 0)
(0.0261828 -2.30628e-07 0)
(0.0262006 -4.09369e-07 0)
(0.0262282 -6.08257e-07 0)
(0.026266 -8.29201e-07 0)
(0.0263145 -1.07353e-06 0)
(0.0263741 -1.34379e-06 0)
(0.0264451 -1.6411e-06 0)
(0.0265279 -1.96921e-06 0)
(0.0266231 -2.32846e-06 0)
(0.0267308 -2.72518e-06 0)
(0.0268521 -3.15809e-06 0)
(0.0269866 -3.6385e-06 0)
(0.0271361 -4.16393e-06 0)
(0.0272999 -4.75041e-06 0)
(0.0274806 -5.43224e-06 0)
(0.0276466 -6.05672e-06 0)
(0.0277846 -6.5377e-06 0)
(0.027925 -7.05024e-06 0)
(0.02807 -7.63e-06 0)
(0.0282187 -8.23347e-06 0)
(0.0283714 -8.87536e-06 0)
(0.0285277 -9.56208e-06 0)
(0.028688 -1.02956e-05 0)
(0.0288519 -1.10946e-05 0)
(0.0290201 -1.19538e-05 0)
(0.0291921 -1.29156e-05 0)
(0.0293696 -1.39551e-05 0)
(0.0295511 -1.51776e-05 0)
(0.0297408 -1.64872e-05 0)
(0.0299343 -1.81896e-05 0)
(0.0301428 -1.99034e-05 0)
(0.0303521 -2.26888e-05 0)
(0.0305954 -2.49046e-05 0)
(0.0308237 -3.08779e-05 0)
(0.0311509 -3.30312e-05 0)
(0.0313869 -5.1548e-05 0)
(0.0319848 -5.01094e-05 0)
(0.0321512 -0.000147224 0)
(0.0340533 -0.000205319 0)
(0.0345464 -0.00321341 0)
(0.149231 0.00369542 0)
(0.0858839 0.000158218 0)
(0.0680501 5.17142e-05 0)
(0.0596225 2.59931e-05 0)
(0.0552646 1.56767e-05 0)
(0.052202 1.22776e-05 0)
(0.0496875 1.03212e-05 0)
(0.0476863 8.54183e-06 0)
(0.046085 7.22356e-06 0)
(0.0447516 6.30826e-06 0)
(0.0436165 5.60006e-06 0)
(0.0426405 5.02218e-06 0)
(0.0417924 4.55214e-06 0)
(0.0410475 4.1662e-06 0)
(0.0403878 3.84288e-06 0)
(0.0397993 3.56828e-06 0)
(0.039271 3.3329e-06 0)
(0.0387943 3.12934e-06 0)
(0.0383619 2.95176e-06 0)
(0.037968 2.79569e-06 0)
(0.0376079 2.65758e-06 0)
(0.0372774 2.5346e-06 0)
(0.0369732 2.4244e-06 0)
(0.0366925 2.32506e-06 0)
(0.0364328 2.23494e-06 0)
(0.0361919 2.15263e-06 0)
(0.0359682 2.07689e-06 0)
(0.0357601 2.00659e-06 0)
(0.0355662 1.94066e-06 0)
(0.0353854 1.87811e-06 0)
(0.0352168 1.81792e-06 0)
(0.0350595 1.75907e-06 0)
(0.0349129 1.70051e-06 0)
(0.0347764 1.64113e-06 0)
(0.0346496 1.57976e-06 0)
(0.0345322 1.51514e-06 0)
(0.0344238 1.44591e-06 0)
(0.0343244 1.37063e-06 0)
(0.034234 1.28773e-06 0)
(0.0341524 1.19554e-06 0)
(0.0340799 1.09229e-06 0)
(0.0340166 9.76089e-07 0)
(0.0339627 8.44972e-07 0)
(0.0339185 6.9685e-07 0)
(0.0338844 5.2958e-07 0)
(0.0338607 3.40888e-07 0)
(0.0338477 1.285e-07 0)
(0.033846 -1.10057e-07 0)
(0.0338561 -3.77145e-07 0)
(0.0338782 -6.75494e-07 0)
(0.0339131 -1.00745e-06 0)
(0.0339611 -1.37619e-06 0)
(0.0340228 -1.78395e-06 0)
(0.0340985 -2.23492e-06 0)
(0.0341891 -2.73102e-06 0)
(0.0342947 -3.27843e-06 0)
(0.0344162 -3.87777e-06 0)
(0.0345538 -4.5395e-06 0)
(0.0347086 -5.2616e-06 0)
(0.0348806 -6.06269e-06 0)
(0.0350716 -6.93885e-06 0)
(0.0352809 -7.91642e-06 0)
(0.0355118 -9.05177e-06 0)
(0.035724 -1.00924e-05 0)
(0.0359003 -1.08954e-05 0)
(0.0360798 -1.17493e-05 0)
(0.0362651 -1.27141e-05 0)
(0.0364552 -1.37189e-05 0)
(0.0366503 -1.47874e-05 0)
(0.03685 -1.59301e-05 0)
(0.0370547 -1.71504e-05 0)
(0.037264 -1.8479e-05 0)
(0.0374788 -1.99078e-05 0)
(0.0376984 -2.15052e-05 0)
(0.037925 -2.32331e-05 0)
(0.0381565 -2.52602e-05 0)
(0.0383984 -2.7437e-05 0)
(0.0386451 -3.02519e-05 0)
(0.0389106 -3.31057e-05 0)
(0.0391774 -3.76861e-05 0)
(0.0394863 -4.14126e-05 0)
(0.0397776 -5.11411e-05 0)
(0.0401902 -5.49936e-05 0)
(0.0404942 -8.47701e-05 0)
(0.041237 -8.40113e-05 0)
(0.041469 -0.00023544 0)
(0.0437338 -0.000321984 0)
(0.0442216 -0.00385961 0)
(0.187243 0.00468196 0)
(0.109214 0.000253091 0)
(0.0866411 8.39246e-05 0)
(0.0759219 4.23102e-05 0)
(0.0703602 2.55416e-05 0)
(0.066459 1.998e-05 0)
(0.0632611 1.67889e-05 0)
(0.0607149 1.38976e-05 0)
(0.0586768 1.17536e-05 0)
(0.05698 1.02635e-05 0)
(0.0555357 9.11098e-06 0)
(0.0542937 8.17083e-06 0)
(0.0532146 7.40608e-06 0)
(0.0522668 6.77811e-06 0)
(0.0514273 6.25206e-06 0)
(0.0506785 5.80529e-06 0)
(0.0500063 5.42232e-06 0)
(0.0493997 5.09113e-06 0)
(0.0488495 4.80222e-06 0)
(0.0483484 4.5483e-06 0)
(0.0478901 4.32361e-06 0)
(0.0474696 4.12352e-06 0)
(0.0470826 3.94424e-06 0)
(0.0467254 3.78263e-06 0)
(0.046395 3.63602e-06 0)
(0.0460885 3.50214e-06 0)
(0.0458039 3.37894e-06 0)
(0.045539 3.26461e-06 0)
(0.0452923 3.15742e-06 0)
(0.0450622 3.05573e-06 0)
(0.0448477 2.9579e-06 0)
(0.0446475 2.86228e-06 0)
(0.0444609 2.76718e-06 0)
(0.0442872 2.67079e-06 0)
(0.0441257 2.57122e-06 0)
(0.0439762 2.46643e-06 0)
(0.0438382 2.35422e-06 0)
(0.0437115 2.23225e-06 0)
(0.0435962 2.09799e-06 0)
(0.0434922 1.94875e-06 0)
(0.0433996 1.78166e-06 0)
(0.0433187 1.59366e-06 0)
(0.0432497 1.38158e-06 0)
(0.043193 1.14204e-06 0)
(0.0431489 8.71575e-07 0)
(0.043118 5.66517e-07 0)
(0.0431008 2.23192e-07 0)
(0.0430978 -1.62395e-07 0)
(0.0431095 -5.94058e-07 0)
(0.0431366 -1.0762e-06 0)
(0.0431797 -1.61261e-06 0)
(0.0432393 -2.20842e-06 0)
(0.0433162 -2.86721e-06 0)
(0.0434109 -3.59575e-06 0)
(0.0435241 -4.39713e-06 0)
(0.0436564 -5.28127e-06 0)
(0.0438087 -6.24922e-06 0)
(0.0439812 -7.3177e-06 0)
(0.0441755 -8.48361e-06 0)
(0.0443912 -9.77662e-06 0)
(0.044631 -1.11908e-05 0)
(0.0448937 -1.27679e-05 0)
(0.0451836 -1.45973e-05 0)
(0.0454498 -1.62758e-05 0)
(0.0456712 -1.75735e-05 0)
(0.0458965 -1.89504e-05 0)
(0.0461291 -2.05037e-05 0)
(0.0463676 -2.21226e-05 0)
(0.0466124 -2.38435e-05 0)
(0.046863 -2.56831e-05 0)
(0.0471198 -2.76476e-05 0)
(0.0473822 -2.97844e-05 0)
(0.0476516 -3.20829e-05 0)
(0.0479268 -3.46487e-05 0)
(0.0482107 -3.74267e-05 0)
(0.0485007 -4.0676e-05 0)
(0.0488036 -4.41758e-05 0)
(0.0491124 -4.86715e-05 0)
(0.049444 -5.32704e-05 0)
(0.0497778 -6.05356e-05 0)
(0.0501624 -6.66109e-05 0)
(0.0505271 -8.18562e-05 0)
(0.0510366 -8.85698e-05 0)
(0.051421 -0.000134473 0)
(0.0523221 -0.000136216 0)
(0.0526358 -0.000361224 0)
(0.0552491 -0.000484507 0)
(0.0556803 -0.00450208 0)
(0.231549 0.0058566 0)
(0.137244 0.000394183 0)
(0.109037 0.000133012 0)
(0.0955644 6.72964e-05 0)
(0.0885454 4.06719e-05 0)
(0.0836332 3.17708e-05 0)
(0.0796139 2.66824e-05 0)
(0.0764123 2.20932e-05 0)
(0.0738486 1.86865e-05 0)
(0.0717146 1.6316e-05 0)
(0.0698981 1.44833e-05 0)
(0.0683363 1.29889e-05 0)
(0.0669791 1.17731e-05 0)
(0.0657872 1.07748e-05 0)
(0.0647315 9.93848e-06 0)
(0.0637898 9.22825e-06 0)
(0.0629446 8.61944e-06 0)
(0.0621817 8.09294e-06 0)
(0.0614898 7.63366e-06 0)
(0.0608596 7.23002e-06 0)
(0.0602833 6.87284e-06 0)
(0.0597546 6.55478e-06 0)
(0.0592679 6.2698e-06 0)
(0.0588187 6.01291e-06 0)
(0.0584031 5.77989e-06 0)
(0.0580178 5.5671e-06 0)
(0.0576598 5.37133e-06 0)
(0.0573267 5.18966e-06 0)
(0.0570164 5.01938e-06 0)
(0.0567271 4.85787e-06 0)
(0.0564572 4.70255e-06 0)
(0.0562054 4.55081e-06 0)
(0.0559707 4.39996e-06 0)
(0.0557521 4.24715e-06 0)
(0.0555489 4.08939e-06 0)
(0.0553606 3.92345e-06 0)
(0.0551869 3.74588e-06 0)
(0.0550274 3.55297e-06 0)
(0.054882 3.34074e-06 0)
(0.0547508 3.10493e-06 0)
(0.0546339 2.84101e-06 0)
(0.0545316 2.54418e-06 0)
(0.0544442 2.20942e-06 0)
(0.054372 1.8314e-06 0)
(0.0543158 1.40467e-06 0)
(0.0542759 9.23444e-07 0)
(0.054253 3.81927e-07 0)
(0.0542478 -2.26166e-07 0)
(0.0542611 -9.0685e-07 0)
(0.0542934 -1.66705e-06 0)
(0.0543457 -2.51274e-06 0)
(0.0544185 -3.45197e-06 0)
(0.0545128 -4.4904e-06 0)
(0.0546292 -5.63861e-06 0)
(0.0547687 -6.90152e-06 0)
(0.0549318 -8.29458e-06 0)
(0.0551198 -9.81959e-06 0)
(0.0553328 -1.15025e-05 0)
(0.0555729 -1.33389e-05 0)
(0.0558396 -1.53745e-05 0)
(0.0561361 -1.76011e-05 0)
(0.0564611 -2.00824e-05 0)
(0.0568196 -2.29566e-05 0)
(0.0571486 -2.55967e-05 0)
(0.0574224 -2.76429e-05 0)
(0.0577012 -2.98079e-05 0)
(0.0579888 -3.22459e-05 0)
(0.0582838 -3.47891e-05 0)
(0.0585865 -3.74912e-05 0)
(0.0588961 -4.03782e-05 0)
(0.0592135 -4.34607e-05 0)
(0.0595377 -4.68102e-05 0)
(0.0598704 -5.0414e-05 0)
(0.0602102 -5.44293e-05 0)
(0.0605605 -5.87819e-05 0)
(0.0609183 -6.3854e-05 0)
(0.0612915 -6.93372e-05 0)
(0.0616721 -7.63236e-05 0)
(0.06208 -8.35475e-05 0)
(0.0624909 -9.47418e-05 0)
(0.062962 -0.000104412 0)
(0.0634112 -0.000127549 0)
(0.0640292 -0.000138997 0)
(0.0645068 -0.000207213 0)
(0.0655765 -0.000214996 0)
(0.0659876 -0.000535016 0)
(0.0689141 -0.000704295 0)
(0.0692289 -0.00511024 0)
(0.282779 0.00724913 0)
(0.17086 0.000600558 0)
(0.135987 0.000206977 0)
(0.119214 0.000105163 0)
(0.110431 6.36473e-05 0)
(0.104301 4.96345e-05 0)
(0.0992968 4.16582e-05 0)
(0.095308 3.45047e-05 0)
(0.0921125 2.91873e-05 0)
(0.089453 2.5482e-05 0)
(0.0871897 2.26188e-05 0)
(0.0852435 2.02851e-05 0)
(0.0835523 1.83864e-05 0)
(0.0820671 1.68271e-05 0)
(0.0807516 1.55209e-05 0)
(0.0795782 1.44117e-05 0)
(0.078525 1.34609e-05 0)
(0.0775744 1.26386e-05 0)
(0.0767123 1.19213e-05 0)
(0.075927 1.1291e-05 0)
(0.0752089 1.07331e-05 0)
(0.07455 1.02364e-05 0)
(0.0739436 9.79141e-06 0)
(0.0733839 9.39027e-06 0)
(0.072866 9.02641e-06 0)
(0.0723858 8.69418e-06 0)
(0.0719397 8.38855e-06 0)
(0.0715247 8.105e-06 0)
(0.071138 7.83927e-06 0)
(0.0707774 7.58732e-06 0)
(0.070441 7.34513e-06 0)
(0.0701272 7.10864e-06 0)
(0.0698346 6.87366e-06 0)
(0.0695621 6.6358e-06 0)
(0.0693087 6.3904e-06 0)
(0.0690738 6.13248e-06 0)
(0.0688569 5.85668e-06 0)
(0.0686578 5.55725e-06 0)
(0.0684761 5.22805e-06 0)
(0.0683121 4.86246e-06 0)
(0.0681657 4.45351e-06 0)
(0.0680373 3.99375e-06 0)
(0.0679274 3.47541e-06 0)
(0.0678364 2.89027e-06 0)
(0.0677649 2.22989e-06 0)
(0.0677136 1.48533e-06 0)
(0.0676834 6.47641e-07 0)
(0.0676749 -2.92884e-07 0)
(0.0676891 -1.34554e-06 0)
(0.0677268 -2.52101e-06 0)
(0.0677889 -3.82852e-06 0)
(0.0678764 -5.28045e-06 0)
(0.0679903 -6.88557e-06 0)
(0.0681314 -8.66009e-06 0)
(0.0683008 -1.06117e-05 0)
(0.0684991 -1.27639e-05 0)
(0.0687281 -1.51197e-05 0)
(0.0689878 -1.77186e-05 0)
(0.0692806 -2.05543e-05 0)
(0.069606 -2.36961e-05 0)
(0.0699678 -2.71328e-05 0)
(0.0703646 -3.09596e-05 0)
(0.0708022 -3.53848e-05 0)
(0.0712037 -3.9455e-05 0)
(0.071538 -4.26185e-05 0)
(0.0718784 -4.59552e-05 0)
(0.0722295 -4.97041e-05 0)
(0.0725895 -5.36188e-05 0)
(0.0729588 -5.77757e-05 0)
(0.0733366 -6.22141e-05 0)
(0.0737236 -6.69525e-05 0)
(0.074119 -7.20944e-05 0)
(0.0745244 -7.76285e-05 0)
(0.0749383 -8.37801e-05 0)
(0.0753648 -9.04582e-05 0)
(0.0758003 -9.82044e-05 0)
(0.076254 -0.000106616 0)
(0.0767166 -0.000117227 0)
(0.0772111 -0.000128341 0)
(0.0777098 -0.000145167 0)
(0.0782781 -0.000160259 0)
(0.0788232 -0.000194391 0)
(0.0795604 -0.000213526 0)
(0.0801439 -0.000311487 0)
(0.0813873 -0.000331545 0)
(0.0819086 -0.000767651 0)
(0.0850901 -0.000993539 0)
(0.0852241 -0.00565023 0)
(0.341442 0.00889032 0)
(0.211071 0.000897664 0)
(0.168373 0.000317365 0)
(0.147654 0.000162078 0)
(0.136739 9.82644e-05 0)
(0.129144 7.6478e-05 0)
(0.12296 6.41378e-05 0)
(0.118028 5.31454e-05 0)
(0.114074 4.49618e-05 0)
(0.110784 3.92491e-05 0)
(0.107985 3.48372e-05 0)
(0.105578 3.12434e-05 0)
(0.103486 2.8319e-05 0)