/*--------------------------------*- C++ -*----------------------------------*\
| =========                 |                                                 |
| \\      /  F ield         | OpenFOAM: The Open Source CFD Toolbox           |
|  \\    /   O peration     | Version:  2506                                  |
|   \\  /    A nd           | Website:  www.openfoam.com                      |
|    \\/     M anipulation  |                                                 |
\*---------------------------------------------------------------------------*/
FoamFile
{
    version     2.0;
    format      ascii;
    arch        "LSB;label=32;scalar=64";
    class       volVectorField;
    location    "1000";
    object      U;
}
// * * * * * * * * * * * * * * * * * * * * * * * * * * * * * * * * * * * * * //

dimensions      [0 1 -1 0 0 0 0];

internalField   nonuniform List<vector> 
20540
(
(30.9446 0.00110333 0)
(27.0552 0.00337387 0)
(30.986 0.00353526 0)
(27.1171 0.0108035 0)
(31.0402 0.00646572 0)
(27.1982 0.0197483 0)
(31.1098 0.00999178 0)
(27.3027 0.0305069 0)
(31.1981 0.0142285 0)
(27.4358 0.0434355 0)
(31.3089 0.0193097 0)
(27.6033 0.0589536 0)
(31.4462 0.02539 0)
(27.812 0.0775525 0)
(31.6147 0.0326456 0)
(28.0694 0.0998042 0)
(31.8197 0.0412744 0)
(28.3846 0.126368 0)
(32.0672 0.0514942 0)
(28.7678 0.157994 0)
(32.3634 0.0635369 0)
(29.2304 0.195523 0)
(32.7151 0.0776397 0)
(29.785 0.239874 0)
(33.1289 0.0940281 0)
(30.4452 0.292022 0)
(33.6112 0.112891 0)
(31.2246 0.352949 0)
(34.1673 0.134344 0)
(32.1366 0.423567 0)
(34.8004 0.158377 0)
(33.1921 0.504589 0)
(35.5107 0.184784 0)
(34.3978 0.596348 0)
(36.2941 0.213082 0)
(35.7527 0.698521 0)
(37.1409 0.242415 0)
(37.2442 0.809763 0)
(38.0346 0.271467 0)
(38.8426 0.927238 0)
(38.9522 0.298414 0)
(40.4965 1.04607 0)
(39.8654 0.320967 0)
(42.1289 1.15884 0)
(40.7445 0.336567 0)
(43.6392 1.25527 0)
(41.5636 0.342794 0)
(44.9156 1.32263 0)
(42.3063 0.337945 0)
(45.8627 1.34724 0)
(42.9675 0.321535 0)
(46.4431 1.31747 0)
(43.5457 0.294179 0)
(46.7147 1.2276 0)
(44.0303 0.256494 0)
(46.8218 1.07983 0)
(44.3959 0.20793 0)
(46.9142 0.881257 0)
(44.6231 0.147035 0)
(47.0446 0.637534 0)
(44.7174 0.0775318 0)
(47.149 0.377713 0)
(44.7471 0.00514804 0)
(47.199 0.123439 0)
(44.7476 -0.0684201 0)
(47.2035 -0.13029 0)
(44.7198 -0.140856 0)
(47.164 -0.384121 0)
(44.6329 -0.210125 0)
(47.0736 -0.639138 0)
(44.4331 -0.270951 0)
(46.9485 -0.873983 0)
(44.112 -0.319587 0)
(46.819 -1.06408 0)
(43.6762 -0.356737 0)
(46.6252 -1.20496 0)
(43.1359 -0.382605 0)
(46.2407 -1.29134 0)
(42.4933 -0.396706 0)
(45.5504 -1.32195 0)
(41.7483 -0.398752 0)
(44.5131 -1.30198 0)
(40.9083 -0.389479 0)
(43.1674 -1.24164 0)
(39.9927 -0.370699 0)
(41.6021 -1.15309 0)
(39.0301 -0.34486 0)
(39.921 -1.04789 0)
(38.0528 -0.314531 0)
(38.2187 -0.935585 0)
(37.0916 -0.282026 0)
(36.5691 -0.823275 0)
(36.1721 -0.249213 0)
(35.0227 -0.715785 0)
(35.313 -0.217463 0)
(33.6096 -0.616064 0)
(34.5265 -0.187692 0)
(32.3439 -0.525649 0)
(33.8186 -0.160437 0)
(31.2279 -0.445082 0)
(33.1907 -0.135946 0)
(30.2565 -0.374241 0)
(32.6406 -0.114258 0)
(29.4197 -0.3126 0)
(32.1639 -0.0952784 0)
(28.7052 -0.259403 0)
(31.7547 -0.0788238 0)
(28.0998 -0.213795 0)
(31.4065 -0.0646671 0)
(27.5903 -0.174899 0)
(31.1124 -0.052563 0)
(27.1644 -0.141868 0)
(30.866 -0.0422665 0)
(26.8104 -0.113915 0)
(30.6611 -0.0335442 0)
(26.5182 -0.0903255 0)
(30.492 -0.0261807 0)
(26.2785 -0.0704647 0)
(30.3536 -0.0199821 0)
(26.0834 -0.0537746 0)
(30.2415 -0.0147762 0)
(25.9261 -0.0397708 0)
(30.1516 -0.0104125 0)
(25.8005 -0.028036 0)
(30.0806 -0.00676058 0)
(25.7015 -0.0182126 0)
(30.0252 -0.00370803 0)
(25.6245 -0.0099959 0)
(29.9826 -0.00115979 0)
(25.5656 -0.00312887 0)
(0.0820466 0.00317233 0)
(0.0616326 1.13701e-06 0)
(0.0516054 4.96148e-07 0)
(0.0485153 2.01462e-07 0)
(0.0465014 1.48507e-07 0)
(0.0448933 1.2127e-07 0)
(0.0436501 9.76174e-08 0)
(0.0426798 8.09384e-08 0)
(0.0418817 6.96419e-08 0)
(0.0412134 6.08278e-08 0)
(0.0406474 5.37812e-08 0)
(0.0401617 4.81424e-08 0)
(0.0397402 4.35178e-08 0)
(0.0393714 3.96567e-08 0)
(0.0390462 3.63902e-08 0)
(0.0387577 3.35989e-08 0)
(0.0385002 3.11867e-08 0)
(0.0382693 2.90852e-08 0)
(0.0380614 2.72388e-08 0)
(0.0378733 2.56055e-08 0)
(0.0377027 2.41504e-08 0)
(0.0375473 2.2846e-08 0)
(0.0374055 2.1669e-08 0)
(0.0372758 2.06001e-08 0)
(0.0371568 1.96221e-08 0)
(0.0370475 1.872e-08 0)
(0.036947 1.78795e-08 0)
(0.0368544 1.70873e-08 0)
(0.0367692 1.63299e-08 0)
(0.0366907 1.55942e-08 0)
(0.0366185 1.48659e-08 0)
(0.0365523 1.41303e-08 0)
(0.0364917 1.33705e-08 0)
(0.0364367 1.2568e-08 0)
(0.0363871 1.17013e-08 0)
(0.0363429 1.07465e-08 0)
(0.0363042 9.6765e-09 0)
(0.0362711 8.46162e-09 0)
(0.0362438 7.06882e-09 0)
(0.0362226 5.46222e-09 0)
(0.0362078 3.60267e-09 0)
(0.0362 1.44782e-09 0)
(0.0361994 -1.04798e-09 0)
(0.0362068 -3.93303e-09 0)
(0.0362226 -7.25819e-09 0)
(0.0362476 -1.1079e-08 0)
(0.0362823 -1.54538e-08 0)
(0.0363275 -2.04429e-08 0)
(0.0363839 -2.61066e-08 0)
(0.0364523 -3.25096e-08 0)
(0.0365335 -3.97165e-08 0)
(0.0366282 -4.78016e-08 0)
(0.0367374 -5.68412e-08 0)
(0.0368617 -6.69377e-08 0)
(0.0370021 -7.81748e-08 0)
(0.0371594 -9.07049e-08 0)
(0.0373346 -1.04586e-07 0)
(0.0375285 -1.20049e-07 0)
(0.0377425 -1.37111e-07 0)
(0.0379772 -1.56152e-07 0)
(0.038235 -1.77263e-07 0)
(0.038516 -2.01013e-07 0)
(0.0388239 -2.28475e-07 0)
(0.0391058 -2.54079e-07 0)
(0.0393397 -2.75165e-07 0)
(0.0395799 -2.98535e-07 0)
(0.0398287 -3.24391e-07 0)
(0.0400855 -3.52244e-07 0)
(0.040351 -3.82805e-07 0)
(0.0406253 -4.16362e-07 0)
(0.0409093 -4.53574e-07 0)
(0.0412037 -4.95066e-07 0)
(0.0415096 -5.41851e-07 0)
(0.0418284 -5.95047e-07 0)
(0.0421619 -6.56317e-07 0)
(0.0425125 -7.27938e-07 0)
(0.0428835 -8.12563e-07 0)
(0.0432782 -9.15767e-07 0)
(0.0437043 -1.04053e-06 0)
(0.0441643 -1.20528e-06 0)
(0.0446815 -1.40296e-06 0)
(0.045242 -1.71469e-06 0)
(0.0459441 -2.05421e-06 0)
(0.0466557 -2.87932e-06 0)
(0.0479006 -3.80705e-06 0)
(0.0489537 -9.58181e-06 0)
(0.0539499 -3.27399e-05 0)
(0.0654332 -0.00901574 0)
(0.262906 0.0101637 0)
(0.197675 1.7661e-05 0)
(0.165564 7.84873e-06 0)
(0.155644 3.19429e-06 0)
(0.149184 2.35711e-06 0)
(0.144027 1.92504e-06 0)
(0.14004 1.55108e-06 0)
(0.136928 1.28673e-06 0)
(0.134369 1.10757e-06 0)
(0.132225 9.67663e-07 0)
(0.13041 8.55849e-07 0)
(0.128852 7.66272e-07 0)
(0.127501 6.92836e-07 0)
(0.126318 6.31475e-07 0)
(0.125275 5.79577e-07 0)
(0.12435 5.35192e-07 0)
(0.123524 4.96835e-07 0)
(0.122783 4.63391e-07 0)
(0.122116 4.34e-07 0)
(0.121513 4.07985e-07 0)
(0.120966 3.84805e-07 0)
(0.120468 3.6402e-07 0)
(0.120013 3.45263e-07 0)
(0.119597 3.28226e-07 0)
(0.119216 3.12639e-07 0)
(0.118865 2.98263e-07 0)
(0.118543 2.84874e-07 0)
(0.118246 2.72259e-07 0)
(0.117973 2.60204e-07 0)
(0.117721 2.48491e-07 0)
(0.117489 2.36888e-07 0)
(0.117277 2.25142e-07 0)
(0.117083 2.1298e-07 0)
(0.116906 2.00094e-07 0)
(0.116747 1.86147e-07 0)
(0.116606 1.70758e-07 0)
(0.116481 1.53506e-07 0)
(0.116375 1.33922e-07 0)
(0.116287 1.1149e-07 0)
(0.116219 8.56434e-08 0)
(0.116172 5.57655e-08 0)
(0.116146 2.11881e-08 0)
(0.116145 -1.8805e-08 0)
(0.116168 -6.49694e-08 0)
(0.116219 -1.18099e-07 0)
(0.116298 -1.79058e-07 0)
(0.116409 -2.48759e-07 0)
(0.116554 -3.28148e-07 0)
(0.116734 -4.18194e-07 0)
(0.116953 -5.19945e-07 0)
(0.117213 -6.34452e-07 0)
(0.117517 -7.6292e-07 0)
(0.117866 -9.06491e-07 0)
(0.118264 -1.06666e-06 0)
(0.118714 -1.24469e-06 0)
(0.119217 -1.44267e-06 0)
(0.119778 -1.66199e-06 0)
(0.120399 -1.90604e-06 0)
(0.121085 -2.17611e-06 0)
(0.121836 -2.47838e-06 0)
(0.122661 -2.81424e-06 0)
(0.123561 -3.19288e-06 0)
(0.124547 -3.63095e-06 0)
(0.125449 -4.03759e-06 0)
(0.126198 -4.37782e-06 0)
(0.126967 -4.7493e-06 0)
(0.127764 -5.16306e-06 0)
(0.128586 -5.60672e-06 0)
(0.129436 -6.0931e-06 0)
(0.130314 -6.6266e-06 0)
(0.131223 -7.21741e-06 0)
(0.132165 -7.87668e-06 0)
(0.133144 -8.61891e-06 0)
(0.134165 -9.46418e-06 0)
(0.135232 -1.04364e-05 0)
(0.136354 -1.15748e-05 0)
(0.137541 -1.29164e-05 0)
(0.138804 -1.45584e-05 0)
(0.140167 -1.65297e-05 0)
(0.141639 -1.91669e-05 0)
(0.143293 -2.22458e-05 0)
(0.145087 -2.7365e-05 0)
(0.14733 -3.23628e-05 0)
(0.149616 -4.67691e-05 0)
(0.153588 -5.89624e-05 0)
(0.157038 -0.000157796 0)
(0.172621 -0.000464848 0)
(0.207637 -0.0283887 0)
(0.481069 0.0186001 0)
(0.36204 6.20467e-05 0)
(0.303316 2.76402e-05 0)
(0.28513 1.12594e-05 0)
(0.273297 8.30278e-06 0)
(0.263854 6.78026e-06 0)
(0.256552 5.46331e-06 0)
(0.250852 4.53203e-06 0)
(0.246165 3.90084e-06 0)
(0.24224 3.40803e-06 0)
(0.238915 3.01417e-06 0)
(0.236062 2.69865e-06 0)
(0.233587 2.43998e-06 0)
(0.231421 2.22385e-06 0)
(0.229511 2.04106e-06 0)
(0.227817 1.88473e-06 0)
(0.226305 1.74964e-06 0)
(0.224949 1.63185e-06 0)
(0.223727 1.52834e-06 0)
(0.222623 1.43672e-06 0)
(0.221621 1.35508e-06 0)
(0.220708 1.28188e-06 0)
(0.219876 1.21583e-06 0)
(0.219114 1.15583e-06 0)
(0.218415 1.10094e-06 0)
(0.217773 1.05031e-06 0)
(0.217183 1.00316e-06 0)
(0.216639 9.58739e-07 0)
(0.216139 9.16294e-07 0)
(0.215678 8.75057e-07 0)
(0.215254 8.34213e-07 0)
(0.214865 7.92881e-07 0)
(0.214509 7.50093e-07 0)
(0.214186 7.04774e-07 0)
(0.213895 6.55731e-07 0)
(0.213635 6.01628e-07 0)
(0.213407 5.40981e-07 0)
(0.213213 4.72142e-07 0)
(0.213052 3.93295e-07 0)
(0.212927 3.02443e-07 0)
(0.21284 1.97417e-07 0)
(0.212793 7.58674e-08 0)
(0.21279 -6.47281e-08 0)
(0.212832 -2.27029e-07 0)
(0.212924 -4.1383e-07 0)
(0.21307 -6.28179e-07 0)
(0.213273 -8.7328e-07 0)
(0.213537 -1.15247e-06 0)
(0.213867 -1.46915e-06 0)
(0.214267 -1.82701e-06 0)
(0.214742 -2.22974e-06 0)
(0.215297 -2.68159e-06 0)
(0.215936 -3.18658e-06 0)
(0.216663 -3.74999e-06 0)
(0.217485 -4.37623e-06 0)
(0.218406 -5.07271e-06 0)
(0.219432 -5.84409e-06 0)
(0.220567 -6.70251e-06 0)
(0.22182 -7.65201e-06 0)
(0.223194 -8.71475e-06 0)
(0.224703 -9.89505e-06 0)
(0.226348 -1.12261e-05 0)
(0.228151 -1.27649e-05 0)
(0.2298 -1.41937e-05 0)
(0.23117 -1.53901e-05 0)
(0.232575 -1.66949e-05 0)
(0.234032 -1.81485e-05 0)
(0.235535 -1.97072e-05 0)
(0.237088 -2.14161e-05 0)
(0.238693 -2.32903e-05 0)
(0.240355 -2.53658e-05 0)
(0.242077 -2.76815e-05 0)
(0.243866 -3.02886e-05 0)
(0.24573 -3.32569e-05 0)
(0.247681 -3.6671e-05 0)
(0.249731 -4.06679e-05 0)
(0.2519 -4.53783e-05 0)
(0.254207 -5.11429e-05 0)
(0.256697 -5.80636e-05 0)
(0.259386 -6.73237e-05 0)
(0.262406 -7.81347e-05 0)
(0.265685 -9.61291e-05 0)
(0.269778 -0.000113716 0)
(0.27397 -0.000164542 0)
(0.281204 -0.000207977 0)
(0.287646 -0.000550652 0)
(0.315552 -0.00157495 0)
(0.376747 -0.0512325 0)
(0.744084 0.0287728 0)
(0.560575 0.000152216 0)
(0.469805 6.79488e-05 0)
(0.441613 2.77106e-05 0)
(0.423289 2.04235e-05 0)
(0.408668 1.66769e-05 0)
(0.397363 1.34385e-05 0)
(0.388538 1.11477e-05 0)
(0.381281 9.59495e-06 0)
(0.375203 8.38275e-06 0)
(0.370057 7.41396e-06 0)
(0.36564 6.63784e-06 0)
(0.361807 6.00157e-06 0)
(0.358453 5.46995e-06 0)
(0.355497 5.02031e-06 0)
(0.352873 4.63578e-06 0)
(0.350532 4.30348e-06 0)
(0.348433 4.01375e-06 0)
(0.346542 3.75914e-06 0)
(0.344832 3.53379e-06 0)
(0.34328 3.33299e-06 0)
(0.341868 3.15293e-06 0)
(0.340579 2.99046e-06 0)
(0.339399 2.84288e-06 0)
(0.338318 2.70787e-06 0)
(0.337324 2.58335e-06 0)
(0.33641 2.46738e-06 0)
(0.335569 2.35812e-06 0)
(0.334793 2.25374e-06 0)
(0.33408 2.15233e-06 0)
(0.333423 2.05189e-06 0)
(0.332821 1.95027e-06 0)
(0.332271 1.84507e-06 0)
(0.33177 1.73366e-06 0)
(0.331319 1.6131e-06 0)
(0.330917 1.48012e-06 0)
(0.330565 1.33107e-06 0)
(0.330263 1.1619e-06 0)
(0.330014 9.68138e-07 0)
(0.32982 7.44892e-07 0)
(0.329685 4.86829e-07 0)
(0.329613 1.88174e-07 0)
(0.329606 -1.57267e-07 0)
(0.329672 -5.5603e-07 0)
(0.329814 -1.01498e-06 0)
(0.330038 -1.5416e-06 0)
(0.330351 -2.14376e-06 0)
(0.330759 -2.82965e-06 0)
(0.331269 -3.60764e-06 0)
(0.331887 -4.48679e-06 0)
(0.332621 -5.47617e-06 0)
(0.333478 -6.58619e-06 0)
(0.334465 -7.82674e-06 0)
(0.335589 -9.21076e-06 0)
(0.33686 -1.07491e-05 0)
(0.338282 -1.246e-05 0)
(0.339868 -1.43548e-05 0)
(0.341622 -1.64633e-05 0)
(0.343558 -1.87955e-05 0)
(0.345681 -2.14058e-05 0)
(0.348012 -2.43045e-05 0)
(0.350554 -2.75737e-05 0)
(0.35334 -3.13519e-05 0)
(0.355888 -3.486e-05 0)
(0.358003 -3.77996e-05 0)
(0.360175 -4.10028e-05 0)
(0.362426 -4.45714e-05 0)
(0.364747 -4.8398e-05 0)
(0.367147 -5.25929e-05 0)
(0.369627 -5.71935e-05 0)
(0.372193 -6.22879e-05 0)
(0.374853 -6.79712e-05 0)
(0.377616 -7.43692e-05 0)
(0.380496 -8.16532e-05 0)
(0.383508 -9.00303e-05 0)
(0.386673 -9.98367e-05 0)
(0.390022 -0.000111393 0)
(0.393584 -0.000125534 0)
(0.397427 -0.000142514 0)
(0.401578 -0.000165224 0)
(0.406238 -0.000191775 0)
(0.411302 -0.000235892 0)
(0.41761 -0.000279319 0)
(0.424111 -0.000404021 0)
(0.435235 -0.000513205 0)
(0.44541 -0.00134118 0)
(0.487527 -0.00374395 0)
(0.577233 -0.077957 0)
(1.06096 0.0410346 0)
(0.800312 0.000313378 0)
(0.670987 0.000140185 0)
(0.630683 5.72487e-05 0)
(0.604516 4.21689e-05 0)
(0.583646 3.44298e-05 0)
(0.567507 2.77455e-05 0)
(0.554908 2.30159e-05 0)
(0.544548 1.98095e-05 0)
(0.535872 1.73068e-05 0)
(0.528525 1.53066e-05 0)
(0.52222 1.37041e-05 0)
(0.516749 1.23905e-05 0)
(0.511962 1.12929e-05 0)
(0.507741 1.03645e-05 0)
(0.503996 9.57061e-06 0)
(0.500654 8.88453e-06 0)
(0.497658 8.28636e-06 0)
(0.494958 7.76068e-06 0)
(0.492518 7.29542e-06 0)
(0.490303 6.88085e-06 0)
(0.488287 6.50912e-06 0)
(0.486447 6.17368e-06 0)
(0.484763 5.869e-06 0)
(0.483219 5.59027e-06 0)
(0.481801 5.3332e-06 0)
(0.480496 5.0938e-06 0)
(0.479295 4.86827e-06 0)
(0.478188 4.65279e-06 0)
(0.47717 4.44348e-06 0)
(0.476233 4.2362e-06 0)
(0.475373 4.02647e-06 0)
(0.474587 3.80939e-06 0)
(0.473873 3.57953e-06 0)
(0.473229 3.33082e-06 0)
(0.472655 3.05651e-06 0)
(0.472151 2.74907e-06 0)
(0.47172 2.40016e-06 0)
(0.471365 2.00057e-06 0)
(0.471088 1.5402e-06 0)
(0.470895 1.00805e-06 0)
(0.47079 3.92219e-07 0)
(0.47078 -3.20059e-07 0)
(0.470872 -1.14226e-06 0)
(0.471074 -2.08853e-06 0)
(0.471393 -3.17431e-06 0)
(0.471838 -4.41582e-06 0)
(0.472419 -5.82995e-06 0)
(0.473144 -7.43392e-06 0)
(0.474025 -9.24643e-06 0)
(0.47507 -1.12862e-05 0)
(0.476289 -1.35746e-05 0)
(0.477695 -1.61321e-05 0)
(0.479296 -1.89853e-05 0)
(0.481105 -2.21565e-05 0)
(0.483131 -2.56834e-05 0)
(0.485388 -2.95892e-05 0)
(0.487886 -3.39355e-05 0)
(0.490644 -3.87426e-05 0)
(0.493668 -4.41228e-05 0)
(0.496988 -5.00971e-05 0)
(0.500608 -5.68348e-05 0)
(0.504574 -6.46192e-05 0)
(0.508203 -7.18479e-05 0)
(0.511215 -7.79081e-05 0)
(0.514308 -8.45072e-05 0)
(0.517512 -9.18585e-05 0)
(0.520817 -9.97415e-05 0)
(0.524233 -0.000108383 0)
(0.527763 -0.000117858 0)
(0.531416 -0.000128351 0)
(0.535202 -0.000140054 0)
(0.539136 -0.000153229 0)
(0.543234 -0.000168227 0)
(0.54752 -0.000185473 0)
(0.552024 -0.00020566 0)
(0.556788 -0.00022945 0)
(0.561855 -0.000258551 0)
(0.567321 -0.000293513 0)
(0.573225 -0.000340224 0)
(0.579849 -0.000394975 0)
(0.587057 -0.000485617 0)
(0.596011 -0.000575902 0)
(0.605304 -0.000831829 0)
(0.621056 -0.00106399 0)
(0.635875 -0.00273375 0)
(0.694185 -0.00744647 0)
(0.814101 -0.108988 0)
(1.44238 0.0558078 0)
(1.08969 0.00058348 0)
(0.914034 0.000261622 0)
(0.859064 0.000107022 0)
(0.823427 7.87759e-05 0)
(0.795017 6.43102e-05 0)
(0.773043 5.18279e-05 0)
(0.75589 4.29933e-05 0)
(0.741785 3.70027e-05 0)
(0.729974 3.23275e-05 0)
(0.719971 2.85912e-05 0)
(0.711387 2.55978e-05 0)
(0.703939 2.31438e-05 0)
(0.697421 2.10935e-05 0)
(0.691676 1.93594e-05 0)
(0.686577 1.78764e-05 0)
(0.682028 1.65948e-05 0)
(0.677949 1.54774e-05 0)
(0.674274 1.44955e-05 0)
(0.670951 1.36264e-05 0)
(0.667937 1.2852e-05 0)
(0.665192 1.21577e-05 0)
(0.662687 1.15311e-05 0)
(0.660395 1.0962e-05 0)
(0.658293 1.04414e-05 0)
(0.656363 9.96126e-06 0)
(0.654586 9.51414e-06 0)
(0.652951 9.09293e-06 0)
(0.651445 8.69053e-06 0)
(0.650058 8.29967e-06 0)
(0.648783 7.91264e-06 0)
(0.647612 7.52108e-06 0)
(0.646542 7.11587e-06 0)
(0.64557 6.68683e-06 0)
(0.644693 6.22268e-06 0)
(0.643911 5.71081e-06 0)
(0.643225 5.13719e-06 0)
(0.642638 4.48626e-06 0)
(0.642153 3.74084e-06 0)
(0.641776 2.88209e-06 0)
(0.641511 1.88951e-06 0)
(0.641368 7.4091e-07 0)
(0.641353 -5.87531e-07 0)
(0.641477 -2.12094e-06 0)
(0.64175 -3.88569e-06 0)
(0.642182 -5.91057e-06 0)
(0.642785 -8.22582e-06 0)
(0.643573 -1.08629e-05 0)
(0.644557 -1.3854e-05 0)
(0.645751 -1.72339e-05 0)
(0.647169 -2.10375e-05 0)
(0.648824 -2.53047e-05 0)
(0.650732 -3.00735e-05 0)
(0.652906 -3.53936e-05 0)
(0.655361 -4.13067e-05 0)
(0.658111 -4.78825e-05 0)
(0.661176 -5.51648e-05 0)
(0.664567 -6.3268e-05 0)
(0.66831 -7.22299e-05 0)
(0.672415 -8.22595e-05 0)
(0.676922 -9.33963e-05 0)
(0.681836 -0.000105955 0)
(0.687219 -0.000120461 0)
(0.692144 -0.000133932 0)
(0.696233 -0.000145232 0)
(0.70043 -0.000157528 0)
(0.704778 -0.000171222 0)
(0.709264 -0.000185909 0)
(0.7139 -0.000202006 0)
(0.71869 -0.000219656 0)
(0.723646 -0.000239198 0)
(0.728782 -0.000260994 0)
(0.734118 -0.000285526 0)
(0.739676 -0.000313449 0)
(0.745489 -0.000345557 0)
(0.751596 -0.000383132 0)
(0.758055 -0.000427415 0)
(0.764925 -0.000481563 0)
(0.772333 -0.000546658 0)
(0.780335 -0.000633504 0)
(0.789307 -0.000735656 0)
(0.799082 -0.000903869 0)
(0.811192 -0.00107409 0)
(0.823856 -0.00154782 0)
(0.845085 -0.0019967 0)
(0.865658 -0.00502293 0)
(0.942132 -0.0133207 0)
(1.09293 -0.144708 0)
(1.90102 0.0735957 0)
(1.43883 0.0010189 0)
(1.20757 0.000458098 0)
(1.13484 0.000187781 0)
(1.08777 0.000138104 0)
(1.05027 0.000112726 0)
(1.02126 9.0853e-05 0)
(0.998611 7.53665e-05 0)
(0.979989 6.48628e-05 0)
(0.964395 5.6667e-05 0)
(0.95119 5.01173e-05 0)
(0.939857 4.48697e-05 0)
(0.930024 4.05679e-05 0)
(0.92142 3.69737e-05 0)
(0.913835 3.39338e-05 0)
(0.907105 3.13341e-05 0)
(0.901099 2.90876e-05 0)
(0.895714 2.71289e-05 0)
(0.890863 2.54076e-05 0)
(0.886477 2.38842e-05 0)
(0.882497 2.25267e-05 0)
(0.878874 2.13096e-05 0)
(0.875568 2.02113e-05 0)
(0.872542 1.92138e-05 0)
(0.869767 1.83013e-05 0)
(0.867219 1.74597e-05 0)
(0.864874 1.6676e-05 0)
(0.862716 1.59378e-05 0)
(0.860727 1.52327e-05 0)
(0.858896 1.45478e-05 0)
(0.857213 1.38696e-05 0)
(0.855668 1.31837e-05 0)
(0.854255 1.2474e-05 0)
(0.852971 1.17226e-05 0)
(0.851813 1.09099e-05 0)
(0.85078 1.00137e-05 0)
(0.849874 9.00957e-06 0)
(0.849098 7.87023e-06 0)
(0.848457 6.56564e-06 0)
(0.847958 5.06284e-06 0)
(0.847607 3.32596e-06 0)
(0.847416 1.31618e-06 0)
(0.847395 -1.00817e-06 0)
(0.847555 -3.69105e-06 0)
(0.847912 -6.7786e-06 0)
(0.848479 -1.03211e-05 0)
(0.849271 -1.43716e-05 0)
(0.850306 -1.8985e-05 0)
(0.851599 -2.42176e-05 0)
(0.853169 -3.01302e-05 0)
(0.855034 -3.67839e-05 0)
(0.857211 -4.42484e-05 0)
(0.859721 -5.25901e-05 0)
(0.86258 -6.18959e-05 0)
(0.865809 -7.22386e-05 0)
(0.869428 -8.37402e-05 0)
(0.873459 -9.6477e-05 0)
(0.877921 -0.000110649 0)
(0.882845 -0.000126322 0)
(0.888245 -0.00014386 0)
(0.894174 -0.000163335 0)
(0.900639 -0.000185293 0)
(0.907721 -0.000210646 0)
(0.914198 -0.000234197 0)
(0.919576 -0.000253958 0)
(0.925097 -0.000275449 0)
(0.930815 -0.000299376 0)
(0.936714 -0.00032504 0)
(0.94281 -0.000353163 0)
(0.949108 -0.000383998 0)
(0.955624 -0.000418132 0)
(0.962376 -0.000456199 0)
(0.969388 -0.00049904 0)
(0.976693 -0.000547794 0)
(0.984332 -0.000603849 0)
(0.992355 -0.000669434 0)
(1.00084 -0.000746731 0)
(1.00986 -0.000841198 0)
(1.01959 -0.000954856 0)
(1.0301 -0.00110621 0)
(1.04187 -0.00128503 0)
(1.05471 -0.00157745 0)
(1.07056 -0.00187918 0)
(1.08729 -0.00269936 0)
(1.11496 -0.00351583 0)
(1.14261 -0.00862298 0)
(1.23906 -0.0221893 0)
(1.41991 -0.185408 0)
(2.45176 0.0949974 0)
(1.85981 0.00170239 0)
(1.56196 0.000767873 0)
(1.46772 0.00031555 0)
(1.40686 0.000231836 0)
(1.3584 0.000189199 0)
(1.3209 0.000152499 0)
(1.29163 0.000126505 0)
(1.26756 0.00010887 0)
(1.24741 9.51124e-05 0)
(1.23035 8.41185e-05 0)
(1.2157 7.531e-05 0)
(1.20299 6.80891e-05 0)
(1.19187 6.2056e-05 0)
(1.18207 5.69534e-05 0)
(1.17337 5.25898e-05 0)
(1.16561 4.88189e-05 0)
(1.15865 4.55312e-05 0)
(1.15239 4.26421e-05 0)
(1.14672 4.0085e-05 0)
(1.14158 3.78066e-05 0)
(1.1369 3.57637e-05 0)
(1.13262 3.39204e-05 0)
(1.12871 3.22461e-05 0)
(1.12513 3.07146e-05 0)
(1.12183 2.93022e-05 0)
(1.1188 2.79871e-05 0)
(1.11602 2.67484e-05 0)
(1.11345 2.55652e-05 0)
(1.11108 2.44161e-05 0)
(1.1089 2.32786e-05 0)
(1.10691 2.21281e-05 0)
(1.10508 2.09379e-05 0)
(1.10342 1.96782e-05 0)
(1.10193 1.83159e-05 0)
(1.10059 1.68139e-05 0)
(1.09942 1.51313e-05 0)
(1.09841 1.32224e-05 0)
(1.09758 1.10369e-05 0)
(1.09694 8.51958e-06 0)
(1.09648 5.61043e-06 0)
(1.09623 2.24439e-06 0)
(1.0962 -1.64826e-06 0)
(1.0964 -6.14113e-06 0)
(1.09686 -1.13115e-05 0)
(1.09759 -1.72436e-05 0)
(1.0986 -2.4026e-05 0)
(1.09993 -3.17508e-05 0)
(1.1016 -4.05122e-05 0)
(1.10362 -5.04119e-05 0)
(1.10601 -6.1552e-05 0)
(1.10881 -7.40494e-05 0)
(1.11204 -8.80151e-05 0)
(1.11572 -0.000103594 0)
(1.11988 -0.000120909 0)
(1.12453 -0.000140162 0)
(1.12972 -0.000161483 0)
(1.13546 -0.000185204 0)
(1.1418 -0.000211437 0)
(1.14875 -0.000240789 0)
(1.15638 -0.00027338 0)
(1.1647 -0.000310121 0)
(1.17381 -0.000352528 0)
(1.18214 -0.000391927 0)
(1.18906 -0.000425002 0)
(1.19616 -0.000460946 0)
(1.20352 -0.000500947 0)
(1.21111 -0.000543861 0)
(1.21895 -0.000590876 0)
(1.22704 -0.000642419 0)
(1.23542 -0.000699468 0)
(1.2441 -0.000763079 0)
(1.25312 -0.000834656 0)
(1.26251 -0.000916096 0)
(1.27232 -0.00100972 0)
(1.28263 -0.00111923 0)
(1.29353 -0.0012483 0)
(1.30511 -0.00140594 0)
(1.3176 -0.00159579 0)
(1.33109 -0.00184802 0)
(1.34618 -0.0021476 0)
(1.36267 -0.00263334 0)
(1.38296 -0.00314614 0)
(1.40456 -0.0045006 0)
(1.43976 -0.00592281 0)
(1.47599 -0.0140993 0)
(1.59383 -0.0350578 0)
(1.80189 -0.23122 0)
(3.11202 0.120722 0)
(2.36707 0.00275451 0)
(1.98961 0.00124727 0)
(1.86933 0.000514105 0)
(1.79184 0.000377255 0)
(1.73018 0.000307802 0)
(1.68247 0.000248122 0)
(1.64522 0.000205831 0)
(1.61459 0.000177127 0)
(1.58895 0.000154743 0)
(1.56723 0.000136855 0)
(1.5486 0.000122523 0)
(1.53243 0.000110773 0)
(1.51828 0.000100957 0)
(1.50581 9.26548e-05 0)
(1.49474 8.55551e-05 0)
(1.48487 7.94197e-05 0)
(1.47602 7.40706e-05 0)
(1.46804 6.937e-05 0)
(1.46083 6.52097e-05 0)
(1.45429 6.15029e-05 0)
(1.44833 5.81792e-05 0)
(1.4429 5.51803e-05 0)
(1.43792 5.24565e-05 0)
(1.43336 4.99651e-05 0)
(1.42917 4.76675e-05 0)
(1.42532 4.55283e-05 0)
(1.42177 4.35135e-05 0)
(1.4185 4.15892e-05 0)
(1.41549 3.97207e-05 0)
(1.41272 3.78713e-05 0)
(1.41018 3.60013e-05 0)
(1.40786 3.4067e-05 0)
(1.40575 3.20203e-05 0)
(1.40384 2.98073e-05 0)
(1.40214 2.73681e-05 0)
(1.40065 2.4636e-05 0)
(1.39937 2.1537e-05 0)
(1.39831 1.79895e-05 0)
(1.39748 1.39039e-05 0)
(1.3969 9.1828e-06 0)
(1.39658 3.72074e-06 0)
(1.39653 -2.59542e-06 0)
(1.39679 -9.88509e-06 0)
(1.39736 -1.82736e-05 0)
(1.39827 -2.78975e-05 0)
(1.39956 -3.89005e-05 0)
(1.40124 -5.1432e-05 0)
(1.40334 -6.56445e-05 0)
(1.40589 -8.17031e-05 0)
(1.40893 -9.97733e-05 0)
(1.41247 -0.000120044 0)
(1.41656 -0.000142696 0)
(1.42121 -0.000167964 0)
(1.42647 -0.000196045 0)
(1.43237 -0.000227269 0)
(1.43893 -0.000261845 0)
(1.4462 -0.000300308 0)
(1.45422 -0.000342845 0)
(1.46302 -0.000390429 0)
(1.47268 -0.000443265 0)
(1.48321 -0.000502817 0)
(1.49474 -0.000571521 0)
(1.50528 -0.000635368 0)
(1.51404 -0.000688993 0)
(1.52303 -0.000747224 0)
(1.53233 -0.00081199 0)
(1.54193 -0.00088149 0)
(1.55185 -0.00095761 0)
(1.56209 -0.00104105 0)
(1.57269 -0.00113339 0)
(1.58366 -0.00123632 0)
(1.59506 -0.00135212 0)
(1.60692 -0.00148385 0)
(1.61933 -0.00163525 0)
(1.63235 -0.00181229 0)
(1.64611 -0.00202095 0)
(1.66074 -0.00227559 0)
(1.67649 -0.00258261 0)
(1.69351 -0.00298937 0)
(1.71253 -0.0034755 0)
(1.73336 -0.00425561 0)
(1.75885 -0.00510101 0)
(1.78628 -0.00725897 0)
(1.83016 -0.00965457 0)
(1.87665 -0.0222007 0)
(2.01658 -0.053085 0)
(2.2465 -0.28205 0)
(3.902 0.151606 0)
(2.97774 0.00434968 0)
(2.5054 0.00197886 0)
(2.35356 0.000818634 0)
(2.25603 0.00059984 0)
(2.17851 0.000489273 0)
(2.11851 0.000394456 0)
(2.07165 0.000327226 0)
(2.03314 0.000281577 0)
(2.00089 0.000245988 0)
(1.97358 0.000217551 0)
(1.95014 0.000194764 0)
(1.92981 0.000176085 0)
(1.91202 0.000160479 0)
(1.89634 0.00014728 0)
(1.88242 0.000135993 0)
(1.87001 0.000126239 0)
(1.85887 0.000117736 0)
(1.84885 0.000110263 0)
(1.83978 0.000103649 0)
(1.83155 9.77567e-05 0)
(1.82406 9.24733e-05 0)
(1.81723 8.77061e-05 0)
(1.81097 8.33766e-05 0)
(1.80524 7.94164e-05 0)
(1.79997 7.57646e-05 0)
(1.79513 7.23648e-05 0)
(1.79066 6.9163e-05 0)
(1.78655 6.61055e-05 0)
(1.78277 6.31371e-05 0)
(1.77929 6.01996e-05 0)
(1.77609 5.72301e-05 0)
(1.77317 5.41594e-05 0)
(1.77051 5.0911e-05 0)
(1.76812 4.73997e-05 0)
(1.76598 4.35306e-05 0)
(1.7641 3.91979e-05 0)
(1.76249 3.42844e-05 0)
(1.76115 2.86607e-05 0)
(1.76011 2.2185e-05 0)
(1.75937 1.47031e-05 0)
(1.75896 6.04767e-06 0)
(1.75889 -3.96034e-06 0)
(1.7592 -1.55101e-05 0)
(1.75991 -2.88001e-05 0)
(1.76105 -4.40466e-05 0)
(1.76265 -6.14771e-05 0)
(1.76474 -8.13281e-05 0)
(1.76736 -0.000103841 0)
(1.77055 -0.000129277 0)
(1.77434 -0.000157899 0)
(1.77877 -0.000190004 0)
(1.78387 -0.00022588 0)
(1.78969 -0.000265896 0)
(1.79626 -0.000310366 0)
(1.80363 -0.000359809 0)
(1.81183 -0.000414557 0)
(1.82092 -0.000475453 0)
(1.83094 -0.000542797 0)
(1.84194 -0.000618115 0)
(1.854 -0.000701746 0)
(1.86716 -0.000795981 0)
(1.88157 -0.000904642 0)
(1.89474 -0.00100565 0)
(1.90568 -0.00109054 0)
(1.91691 -0.00118263 0)
(1.92853 -0.00128498 0)
(1.94052 -0.00139485 0)
(1.9529 -0.00151514 0)
(1.96568 -0.00164699 0)
(1.97891 -0.00179284 0)
(1.9926 -0.0019554 0)
(2.00682 -0.00213823 0)
(2.02162 -0.00234614 0)
(2.03708 -0.00258504 0)
(2.05331 -0.00286427 0)
(2.07046 -0.00319339 0)
(2.08868 -0.00359462 0)
(2.10829 -0.004079 0)
(2.12948 -0.00471858 0)
(2.15311 -0.00548841 0)
(2.17904 -0.00670877 0)
(2.2106 -0.00807037 0)
(2.24493 -0.0114098 0)
(2.2987 -0.0153315 0)
(2.35711 -0.0338825 0)
(2.5188 -0.0775028 0)
(2.76248 -0.337497 0)
(4.84489 0.188628 0)
(3.71211 0.0067383 0)
(3.12704 0.00308311 0)
(2.93699 0.00128108 0)
(2.81535 0.000937039 0)
(2.71878 0.000764057 0)
(2.64401 0.000616081 0)
(2.5856 0.000511086 0)
(2.53761 0.000439755 0)
(2.49742 0.000384168 0)
(2.46339 0.000339753 0)
(2.43419 0.000304161 0)
(2.40885 0.000274985 0)
(2.38669 0.00025061 0)
(2.36714 0.000229995 0)
(2.34981 0.000212366 0)
(2.33434 0.000197132 0)
(2.32047 0.000183851 0)
(2.30797 0.00017218 0)
(2.29668 0.000161851 0)
(2.28643 0.000152648 0)
(2.2771 0.000144397 0)
(2.26858 0.000136952 0)
(2.26079 0.000130191 0)
(2.25365 0.000124007 0)
(2.24708 0.000118305 0)
(2.24105 0.000112997 0)
(2.23549 0.000107998 0)
(2.23037 0.000103226 0)
(2.22565 9.85938e-05 0)
(2.22131 9.40109e-05 0)
(2.21733 8.93792e-05 0)
(2.21369 8.45913e-05 0)
(2.21038 7.95281e-05 0)
(2.20739 7.4057e-05 0)
(2.20472 6.80302e-05 0)
(2.20238 6.12832e-05 0)
(2.20037 5.36337e-05 0)
(2.1987 4.48806e-05 0)
(2.19739 3.48032e-05 0)
(2.19646 2.31616e-05 0)
(2.19594 9.69578e-06 0)
(2.19584 -5.87276e-06 0)
(2.19621 -2.38382e-05 0)
(2.19708 -4.45091e-05 0)
(2.19847 -6.82216e-05 0)
(2.20044 -9.53292e-05 0)
(2.20302 -0.0001262 0)
(2.20626 -0.000161208 0)
(2.2102 -0.00020076 0)
(2.21488 -0.000245263 0)
(2.22035 -0.000295181 0)
(2.22666 -0.000350957 0)
(2.23385 -0.000413167 0)
(2.24198 -0.000482297 0)
(2.25109 -0.00055915 0)
(2.26124 -0.000644246 0)
(2.27247 -0.000738882 0)
(2.28487 -0.000843537 0)
(2.29846 -0.000960551 0)
(2.31338 -0.00109048 0)
(2.32965 -0.00123684 0)
(2.34746 -0.00140549 0)
(2.36374 -0.00156233 0)
(2.37726 -0.00169421 0)
(2.39114 -0.00183713 0)
(2.4055 -0.00199585 0)
(2.42031 -0.00216627 0)
(2.4356 -0.00235279 0)
(2.45139 -0.00255717 0)
(2.46772 -0.0027832 0)
(2.48462 -0.00303503 0)
(2.50217 -0.00331818 0)
(2.52042 -0.00364004 0)
(2.53949 -0.00400978 0)
(2.5595 -0.00444166 0)
(2.58062 -0.00495069 0)
(2.60306 -0.00557048 0)
(2.62719 -0.00631977 0)
(2.65325 -0.00730513 0)
(2.68227 -0.00850067 0)
(2.71415 -0.0103689 0)
(2.75273 -0.0125204 0)
(2.79513 -0.017559 0)
(2.85992 -0.0238108 0)
(2.93176 -0.0503045 0)
(3.11339 -0.109471 0)
(3.36006 -0.396765 0)
(5.96692 0.23292 0)
(4.59409 0.0102768 0)
(3.87564 0.00473505 0)
(3.63931 0.00197793 0)
(3.48869 0.00144371 0)
(3.36928 0.00117671 0)
(3.27679 0.000948987 0)
(3.20452 0.000787276 0)
(3.14515 0.000677339 0)
(3.09545 0.000591708 0)
(3.05335 0.000523292 0)
(3.01723 0.000468464 0)
(2.9859 0.000423519 0)
(2.95848 0.000385972 0)
(2.93431 0.000354216 0)
(2.91287 0.00032706 0)
(2.89373 0.000303594 0)
(2.87658 0.000283137 0)
(2.86113 0.000265159 0)
(2.84716 0.00024925 0)
(2.83448 0.000235075 0)
(2.82295 0.000222366 0)
(2.81242 0.0002109 0)
(2.80278 0.000200487 0)
(2.79395 0.000190963 0)
(2.78583 0.000182183 0)
(2.77836 0.00017401 0)
(2.77149 0.000166315 0)
(2.76516 0.000158969 0)
(2.75933 0.000151841 0)
(2.75396 0.000144791 0)
(2.74904 0.000137668 0)
(2.74453 0.000130308 0)
(2.74044 0.000122527 0)
(2.73674 0.000114124 0)
(2.73343 0.00010487 0)
(2.73053 9.4515e-05 0)
(2.72803 8.27779e-05 0)
(2.72596 6.9351e-05 0)
(2.72433 5.38961e-05 0)
(2.72317 3.60455e-05 0)
(2.72251 1.5401e-05 0)
(2.72237 -8.46424e-06 0)
(2.72281 -3.60009e-05 0)
(2.72385 -6.76817e-05 0)
(2.72555 -0.000104021 0)
(2.72795 -0.000145561 0)
(2.7311 -0.000192864 0)
(2.73506 -0.000246505 0)
(2.73987 -0.000307104 0)
(2.7456 -0.000375284 0)
(2.7523 -0.000451755 0)
(2.76003 -0.000537196 0)
(2.76884 -0.000632483 0)
(2.7788 -0.000738364 0)
(2.78996 -0.00085606 0)
(2.8024 -0.000986371 0)
(2.81616 -0.00113126 0)
(2.83135 -0.00129149 0)
(2.84801 -0.00147058 0)
(2.8663 -0.00166944 0)
(2.88623 -0.00189334 0)
(2.90805 -0.00215116 0)
(2.92799 -0.00239103 0)
(2.94454 -0.00259287 0)
(2.96154 -0.00281133 0)
(2.97912 -0.00305368 0)
(2.99725 -0.00331401 0)
(3.01596 -0.00359876 0)
(3.03528 -0.00391071 0)
(3.05525 -0.00425557 0)
(3.07591 -0.00463964 0)
(3.09735 -0.00507128 0)
(3.11966 -0.0055617 0)
(3.14294 -0.00612482 0)
(3.16736 -0.00678212 0)
(3.19312 -0.00755672 0)
(3.22047 -0.00849844 0)
(3.24985 -0.00963858 0)
(3.28157 -0.0111308 0)
(3.31681 -0.012957 0)
(3.35558 -0.0157639 0)
(3.40214 -0.0191055 0)
(3.45384 -0.0265312 0)
(3.53058 -0.0362338 0)
(3.61683 -0.0727813 0)
(3.8148 -0.149862 0)
(4.05169 -0.458578 0)
(7.29724 0.285777 0)
(5.65159 0.0154672 0)
(4.77615 0.00718758 0)
(4.48382 0.00302162 0)
(4.29841 0.00219997 0)
(4.15167 0.00179221 0)
(4.03797 0.0014457 0)